# vtk DataFile Version 3.0
vtk output
ASCII
DATASET UNSTRUCTURED_GRID
POINTS 4560 double
-2.181634e-03	2.499905e-01	-1.000000e-01	-2.216081e-03	2.539377e-01	-1.000000e-01	-2.181634e-03	2.499905e-01	-8.727541e-02	-2.216081e-03	2.539377e-01	-8.727541e-02	-2.181634e-03	2.499905e-01	-7.593488e-02	-2.216081e-03	2.539377e-01	-7.593488e-02	-2.181634e-03	2.499905e-01	-6.583932e-02	-2.216081e-03	2.539377e-01	-6.583932e-02	-2.181634e-03	2.499905e-01	-5.686298e-02	-2.216081e-03	2.539377e-01	-5.686298e-02	-2.181634e-03	2.499905e-01	-4.889218e-02	-2.216081e-03	2.539377e-01	-4.889218e-02	-2.181634e-03	2.499905e-01	-4.182420e-02	-2.216081e-03	2.539377e-01	-4.182420e-02	-2.181634e-03	2.499905e-01	-3.556629e-02	-2.216081e-03	2.539377e-01	-3.556629e-02	-2.181634e-03	2.499905e-01	-3.003468e-02	-2.216081e-03	2.539377e-01	-3.003468e-02	-2.181634e-03	2.499905e-01	-2.515378e-02	-2.216081e-03	2.539377e-01	-2.515378e-02	-2.181634e-03	2.499905e-01	-2.085541e-02	-2.216081e-03	2.539377e-01	-2.085541e-02	-2.181634e-03	2.499905e-01	-1.707809e-02	-2.216081e-03	2.539377e-01	-1.707809e-02	-2.181634e-03	2.499905e-01	-1.376640e-02	-2.216081e-03	2.539377e-01	-1.376640e-02	-2.181634e-03	2.499905e-01	-1.087042e-02	-2.216081e-03	2.539377e-01	-1.087042e-02	-2.181634e-03	2.499905e-01	-8.345227e-03	-2.216081e-03	2.539377e-01	-8.345227e-03	-2.181634e-03	2.499905e-01	-6.150369e-03	-2.216081e-03	2.539377e-01	-6.150369e-03	-2.181634e-03	2.499905e-01	-4.249476e-03	-2.216081e-03	2.539377e-01	-4.249476e-03	-2.181634e-03	2.499905e-01	-2.609859e-03	-2.216081e-03	2.539377e-01	-2.609859e-03	-2.181634e-03	2.499905e-01	-1.202154e-03	-2.216081e-03	2.539377e-01	-1.202154e-03	-2.181634e-03	2.499905e-01	0.000000e+00	-2.216081e-03	2.539377e-01	0.000000e+00	-2.250527e-03	2.578849e-01	-1.000000e-01	-2.250527e-03	2.578849e-01	-8.727541e-02	-2.250527e-03	2.578849e-01	-7.593488e-02	-2.250527e-03	2.578849e-01	-6.583932e-02	-2.250527e-03	2.578849e-01	-5.686298e-02	-2.250527e-03	2.578849e-01	-4.889218e-02	-2.250527e-03	2.578849e-01	-4.182420e-02	-2.250527e-03	2.578849e-01	-3.556629e-02	-2.250527e-03	2.578849e-01	-3.003468e-02	-2.250527e-03	2.578849e-01	-2.515378e-02	-2.250527e-03	2.578849e-01	-2.085541e-02	-2.250527e-03	2.578849e-01	-1.707809e-02	-2.250527e-03	2.578849e-01	-1.376640e-02	-2.250527e-03	2.578849e-01	-1.087042e-02	-2.250527e-03	2.578849e-01	-8.345227e-03	-2.250527e-03	2.578849e-01	-6.150369e-03	-2.250527e-03	2.578849e-01	-4.249476e-03	-2.250527e-03	2.578849e-01	-2.609859e-03	-2.250527e-03	2.578849e-01	-1.202154e-03	-2.250527e-03	2.578849e-01	0.000000e+00	-2.284974e-03	2.618321e-01	-1.000000e-01	-2.284974e-03	2.618321e-01	-8.727541e-02	-2.284974e-03	2.618321e-01	-7.593488e-02	-2.284974e-03	2.618321e-01	-6.583932e-02	-2.284974e-03	2.618321e-01	-5.686298e-02	-2.284974e-03	2.618321e-01	-4.889218e-02	-2.284974e-03	2.618321e-01	-4.182420e-02	-2.284974e-03	2.618321e-01	-3.556629e-02	-2.284974e-03	2.618321e-01	-3.003468e-02	-2.284974e-03	2.618321e-01	-2.515378e-02	-2.284974e-03	2.618321e-01	-2.085541e-02	-2.284974e-03	2.618321e-01	-1.707809e-02	-2.284974e-03	2.618321e-01	-1.376640e-02	-2.284974e-03	2.618321e-01	-1.087042e-02	-2.284974e-03	2.618321e-01	-8.345227e-03	-2.284974e-03	2.618321e-01	-6.150369e-03	-2.284974e-03	2.618321e-01	-4.249476e-03	-2.284974e-03	2.618321e-01	-2.609859e-03	-2.284974e-03	2.618321e-01	-1.202154e-03	-2.284974e-03	2.618321e-01	0.000000e+00	-2.319421e-03	2.657794e-01	-1.000000e-01	-2.319421e-03	2.657794e-01	-8.727541e-02	-2.319421e-03	2.657794e-01	-7.593488e-02	-2.319421e-03	2.657794e-01	-6.583932e-02	-2.319421e-03	2.657794e-01	-5.686298e-02	-2.319421e-03	2.657794e-01	-4.889218e-02	-2.319421e-03	2.657794e-01	-4.182420e-02	-2.319421e-03	2.657794e-01	-3.556629e-02	-2.319421e-03	2.657794e-01	-3.003468e-02	-2.319421e-03	2.657794e-01	-2.515378e-02	-2.319421e-03	2.657794e-01	-2.085541e-02	-2.319421e-03	2.657794e-01	-1.707809e-02	-2.319421e-03	2.657794e-01	-1.376640e-02	-2.319421e-03	2.657794e-01	-1.087042e-02	-2.319421e-03	2.657794e-01	-8.345227e-03	-2.319421e-03	2.657794e-01	-6.150369e-03	-2.319421e-03	2.657794e-01	-4.249476e-03	-2.319421e-03	2.657794e-01	-2.609859e-03	-2.319421e-03	2.657794e-01	-1.202154e-03	-2.319421e-03	2.657794e-01	0.000000e+00	-2.353868e-03	2.697266e-01	-1.000000e-01	-2.353868e-03	2.697266e-01	-8.727541e-02	-2.353868e-03	2.697266e-01	-7.593488e-02	-2.353868e-03	2.697266e-01	-6.583932e-02	-2.353868e-03	2.697266e-01	-5.686298e-02	-2.353868e-03	2.697266e-01	-4.889218e-02	-2.353868e-03	2.697266e-01	-4.182420e-02	-2.353868e-03	2.697266e-01	-3.556629e-02	-2.353868e-03	2.697266e-01	-3.003468e-02	-2.353868e-03	2.697266e-01	-2.515378e-02	-2.353868e-03	2.697266e-01	-2.085541e-02	-2.353868e-03	2.697266e-01	-1.707809e-02	-2.353868e-03	2.697266e-01	-1.376640e-02	-2.353868e-03	2.697266e-01	-1.087042e-02	-2.353868e-03	2.697266e-01	-8.345227e-03	-2.353868e-03	2.697266e-01	-6.150369e-03	-2.353868e-03	2.697266e-01	-4.249476e-03	-2.353868e-03	2.697266e-01	-2.609859e-03	-2.353868e-03	2.697266e-01	-1.202154e-03	-2.353868e-03	2.697266e-01	0.000000e+00	-2.388315e-03	2.736738e-01	-1.000000e-01	-2.388315e-03	2.736738e-01	-8.727541e-02	-2.388315e-03	2.736738e-01	-7.593488e-02	-2.388315e-03	2.736738e-01	-6.583932e-02	-2.388315e-03	2.736738e-01	-5.686298e-02	-2.388315e-03	2.736738e-01	-4.889218e-02	-2.388315e-03	2.736738e-01	-4.182420e-02	-2.388315e-03	2.736738e-01	-3.556629e-02	-2.388315e-03	2.736738e-01	-3.003468e-02	-2.388315e-03	2.736738e-01	-2.515378e-02	-2.388315e-03	2.736738e-01	-2.085541e-02	-2.388315e-03	2.736738e-01	-1.707809e-02	-2.388315e-03	2.736738e-01	-1.376640e-02	-2.388315e-03	2.736738e-01	-1.087042e-02	-2.388315e-03	2.736738e-01	-8.345227e-03	-2.388315e-03	2.736738e-01	-6.150369e-03	-2.388315e-03	2.736738e-01	-4.249476e-03	-2.388315e-03	2.736738e-01	-2.609859e-03	-2.388315e-03	2.736738e-01	-1.202154e-03	-2.388315e-03	2.736738e-01	0.000000e+00	-2.422762e-03	2.776210e-01	-1.000000e-01	-2.422762e-03	2.776210e-01	-8.727541e-02	-2.422762e-03	2.776210e-01	-7.593488e-02	-2.422762e-03	2.776210e-01	-6.583932e-02	-2.422762e-03	2.776210e-01	-5.686298e-02	-2.422762e-03	2.776210e-01	-4.889218e-02	-2.422762e-03	2.776210e-01	-4.182420e-02	-2.422762e-03	2.776210e-01	-3.556629e-02	-2.422762e-03	2.776210e-01	-3.003468e-02	-2.422762e-03	2.776210e-01	-2.515378e-02	-2.422762e-03	2.776210e-01	-2.085541e-02	-2.422762e-03	2.776210e-01	-1.707809e-02	-2.422762e-03	2.776210e-01	-1.376640e-02	-2.422762e-03	2.776210e-01	-1.087042e-02	-2.422762e-03	2.776210e-01	-8.345227e-03	-2.422762e-03	2.776210e-01	-6.150369e-03	-2.422762e-03	2.776210e-01	-4.249476e-03	-2.422762e-03	2.776210e-01	-2.609859e-03	-2.422762e-03	2.776210e-01	-1.202154e-03	-2.422762e-03	2.776210e-01	0.000000e+00	-2.457209e-03	2.815682e-01	-1.000000e-01	-2.457209e-03	2.815682e-01	-8.727541e-02	-2.457209e-03	2.815682e-01	-7.593488e-02	-2.457209e-03	2.815682e-01	-6.583932e-02	-2.457209e-03	2.815682e-01	-5.686298e-02	-2.457209e-03	2.815682e-01	-4.889218e-02	-2.457209e-03	2.815682e-01	-4.182420e-02	-2.457209e-03	2.815682e-01	-3.556629e-02	-2.457209e-03	2.815682e-01	-3.003468e-02	-2.457209e-03	2.815682e-01	-2.515378e-02	-2.457209e-03	2.815682e-01	-2.085541e-02	-2.457209e-03	2.815682e-01	-1.707809e-02	-2.457209e-03	2.815682e-01	-1.376640e-02	-2.457209e-03	2.815682e-01	-1.087042e-02	-2.457209e-03	2.815682e-01	-8.345227e-03	-2.457209e-03	2.815682e-01	-6.150369e-03	-2.457209e-03	2.815682e-01	-4.249476e-03	-2.457209e-03	2.815682e-01	-2.609859e-03	-2.457209e-03	2.815682e-01	-1.202154e-03	-2.457209e-03	2.815682e-01	0.000000e+00	-2.491655e-03	2.855154e-01	-1.000000e-01	-2.491655e-03	2.855154e-01	-8.727541e-02	-2.491655e-03	2.855154e-01	-7.593488e-02	-2.491655e-03	2.855154e-01	-6.583932e-02	-2.491655e-03	2.855154e-01	-5.686298e-02	-2.491655e-03	2.855154e-01	-4.889218e-02	-2.491655e-03	2.855154e-01	-4.182420e-02	-2.491655e-03	2.855154e-01	-3.556629e-02	-2.491655e-03	2.855154e-01	-3.003468e-02	-2.491655e-03	2.855154e-01	-2.515378e-02	-2.491655e-03	2.855154e-01	-2.085541e-02	-2.491655e-03	2.855154e-01	-1.707809e-02	-2.491655e-03	2.855154e-01	-1.376640e-02	-2.491655e-03	2.855154e-01	-1.087042e-02	-2.491655e-03	2.855154e-01	-8.345227e-03	-2.491655e-03	2.855154e-01	-6.150369e-03	-2.491655e-03	2.855154e-01	-4.249476e-03	-2.491655e-03	2.855154e-01	-2.609859e-03	-2.491655e-03	2.855154e-01	-1.202154e-03	-2.491655e-03	2.855154e-01	0.000000e+00	-2.526102e-03	2.894627e-01	-1.000000e-01	-2.526102e-03	2.894627e-01	-8.727541e-02	-2.526102e-03	2.894627e-01	-7.593488e-02	-2.526102e-03	2.894627e-01	-6.583932e-02	-2.526102e-03	2.894627e-01	-5.686298e-02	-2.526102e-03	2.894627e-01	-4.889218e-02	-2.526102e-03	2.894627e-01	-4.182420e-02	-2.526102e-03	2.894627e-01	-3.556629e-02	-2.526102e-03	2.894627e-01	-3.003468e-02	-2.526102e-03	2.894627e-01	-2.515378e-02	-2.526102e-03	2.894627e-01	-2.085541e-02	-2.526102e-03	2.894627e-01	-1.707809e-02	-2.526102e-03	2.894627e-01	-1.376640e-02	-2.526102e-03	2.894627e-01	-1.087042e-02	-2.526102e-03	2.894627e-01	-8.345227e-03	-2.526102e-03	2.894627e-01	-6.150369e-03	-2.526102e-03	2.894627e-01	-4.249476e-03	-2.526102e-03	2.894627e-01	-2.609859e-03	-2.526102e-03	2.894627e-01	-1.202154e-03	-2.526102e-03	2.894627e-01	0.000000e+00	-2.560549e-03	2.934099e-01	-1.000000e-01	-2.560549e-03	2.934099e-01	-8.727541e-02	-2.560549e-03	2.934099e-01	-7.593488e-02	-2.560549e-03	2.934099e-01	-6.583932e-02	-2.560549e-03	2.934099e-01	-5.686298e-02	-2.560549e-03	2.934099e-01	-4.889218e-02	-2.560549e-03	2.934099e-01	-4.182420e-02	-2.560549e-03	2.934099e-01	-3.556629e-02	-2.560549e-03	2.934099e-01	-3.003468e-02	-2.560549e-03	2.934099e-01	-2.515378e-02	-2.560549e-03	2.934099e-01	-2.085541e-02	-2.560549e-03	2.934099e-01	-1.707809e-02	-2.560549e-03	2.934099e-01	-1.376640e-02	-2.560549e-03	2.934099e-01	-1.087042e-02	-2.560549e-03	2.934099e-01	-8.345227e-03	-2.560549e-03	2.934099e-01	-6.150369e-03	-2.560549e-03	2.934099e-01	-4.249476e-03	-2.560549e-03	2.934099e-01	-2.609859e-03	-2.560549e-03	2.934099e-01	-1.202154e-03	-2.560549e-03	2.934099e-01	0.000000e+00	-2.594996e-03	2.973571e-01	-1.000000e-01	-2.594996e-03	2.973571e-01	-8.727541e-02	-
[...]
POINT_DATA 4560

SCALARS Density double 1
LOOKUP_TABLE default
1.728956e+00	1.728956e+00	1.728950e+00	1.728951e+00	1.728970e+00	1.728971e+00	1.729004e+00	1.729005e+00	1.729037e+00	1.729038e+00	1.729103e+00	1.729106e+00	1.729152e+00	1.729156e+00	1.729255e+00	1.729262e+00	1.729316e+00	1.729325e+00	1.729457e+00	1.729471e+00	1.729521e+00	1.729543e+00	1.729697e+00	1.729725e+00	1.729759e+00	1.729806e+00	1.729950e+00	1.730002e+00	1.730034e+00	1.730128e+00	1.730172e+00	1.730262e+00	1.730400e+00	1.730534e+00	1.730249e+00	1.730443e+00	1.730387e+00	1.730665e+00	1.729407e+00	1.729717e+00	1.728953e+00	1.728948e+00	1.728967e+00	1.728999e+00	1.729029e+00	1.729093e+00	1.729136e+00	1.729233e+00	1.729282e+00	1.729414e+00	1.729448e+00	1.729619e+00	1.729595e+00	1.729842e+00	1.729650e+00	1.730118e+00	1.729477e+00	1.730586e+00	1.728742e+00	1.730021e+00	1.728950e+00	1.728946e+00	1.728963e+00	1.728994e+00	1.729023e+00	1.729086e+00	1.729129e+00	1.729228e+00	1.729282e+00	1.729422e+00	1.729478e+00	1.729661e+00	1.729713e+00	1.729928e+00	1.729994e+00	1.730170e+00	1.730373e+00	1.730255e+00	1.730624e+00	1.729519e+00	1.728944e+00	1.728941e+00	1.728956e+00	1.728983e+00	1.729006e+00	1.729061e+00	1.729092e+00	1.729174e+00	1.729203e+00	1.729313e+00	1.729317e+00	1.729461e+00	1.729400e+00	1.729610e+00	1.729402e+00	1.729788e+00	1.729250e+00	1.730095e+00	1.728632e+00	1.729373e+00	1.728938e+00	1.728937e+00	1.728949e+00	1.728975e+00	1.728995e+00	1.729047e+00	1.729076e+00	1.729158e+00	1.729193e+00	1.729310e+00	1.729340e+00	1.729495e+00	1.729510e+00	1.729694e+00	1.729705e+00	1.729865e+00	1.729956e+00	1.729914e+00	1.730004e+00	1.729047e+00	1.728931e+00	1.728930e+00	1.728939e+00	1.728960e+00	1.728973e+00	1.729014e+00	1.729029e+00	1.729090e+00	1.729098e+00	1.729181e+00	1.729164e+00	1.729272e+00	1.729202e+00	1.729359e+00	1.729186e+00	1.729461e+00	1.729076e+00	1.729644e+00	1.728557e+00	1.728806e+00	1.728924e+00	1.728924e+00	1.728930e+00	1.728949e+00	1.728957e+00	1.728994e+00	1.729006e+00	1.729064e+00	1.729074e+00	1.729158e+00	1.729158e+00	1.729271e+00	1.729253e+00	1.729389e+00	1.729356e+00	1.729489e+00	1.729485e+00	1.729519e+00	1.729360e+00	1.728587e+00	1.728915e+00	1.728917e+00	1.728918e+00	1.728932e+00	1.728932e+00	1.728958e+00	1.728955e+00	1.728993e+00	1.728981e+00	1.729033e+00	1.728999e+00	1.729071e+00	1.729000e+00	1.729106e+00	1.728973e+00	1.729148e+00	1.728900e+00	1.729228e+00	1.728473e+00	1.728302e+00	1.728907e+00	1.728910e+00	1.728908e+00	1.728919e+00	1.728914e+00	1.728934e+00	1.728925e+00	1.728957e+00	1.728941e+00	1.728987e+00	1.728958e+00	1.729025e+00	1.728975e+00	1.729065e+00	1.728991e+00	1.729104e+00	1.729011e+00	1.729127e+00	1.728740e+00	1.728169e+00	1.728898e+00	1.728903e+00	1.728896e+00	1.728902e+00	1.728889e+00	1.728899e+00	1.728878e+00	1.728892e+00	1.728859e+00	1.728883e+00	1.728834e+00	1.728872e+00	1.728801e+00	1.728860e+00	1.728765e+00	1.728850e+00	1.728726e+00	1.728841e+00	1.728394e+00	1.727848e+00	1.728889e+00	1.728896e+00	1.728886e+00	1.728888e+00	1.728871e+00	1.728873e+00	1.728844e+00	1.728849e+00	1.728807e+00	1.728817e+00	1.728758e+00	1.728782e+00	1.728701e+00	1.728751e+00	1.728634e+00	1.728735e+00	1.728550e+00	1.728758e+00	1.728149e+00	1.727799e+00	1.728881e+00	1.728889e+00	1.728874e+00	1.728873e+00	1.728848e+00	1.728842e+00	1.728804e+00	1.728796e+00	1.728744e+00	1.728740e+00	1.728675e+00	1.728682e+00	1.728610e+00	1.728628e+00	1.728563e+00	1.728570e+00	1.728557e+00	1.728475e+00	1.728324e+00	1.727433e+00	1.728874e+00	1.728883e+00	1.728866e+00	1.728861e+00	1.728831e+00	1.728818e+00	1.728772e+00	1.728752e+00	1.728686e+00	1.728665e+00	1.728577e+00	1.728564e+00	1.728448e+00	1.728465e+00	1.728299e+00	1.728398e+00	1.728108e+00	1.728421e+00	1.727583e+00	1.727482e+00	1.728867e+00	1.728878e+00	1.728856e+00	1.728848e+00	1.728813e+00	1.728794e+00	1.728741e+00	1.728713e+00	1.728643e+00	1.728614e+00	1.728532e+00	1.728511e+00	1.728432e+00	1.728413e+00	1.728370e+00	1.728306e+00	1.728392e+00	1.728126e+00	1.728264e+00	1.727051e+00	1.728862e+00	1.728873e+00	1.728850e+00	1.728839e+00	1.728800e+00	1.728775e+00	1.728714e+00	1.728676e+00	1.728591e+00	1.728544e+00	1.728432e+00	1.728390e+00	1.728240e+00	1.728233e+00	1.728008e+00	1.728118e+00	1.727699e+00	1.728139e+00	1.727040e+00	1.727234e+00	1.728857e+00	1.728869e+00	1.728843e+00	1.728830e+00	1.728788e+00	1.728758e+00	1.728693e+00	1.728650e+00	1.728564e+00	1.728514e+00	1.728415e+00	1.728367e+00	1.728272e+00	1.728220e+00	1.728182e+00	1.728057e+00	1.728222e+00	1.727788e+00	1.728207e+00	1.726704e+00	1.728854e+00	1.728867e+00	1.728840e+00	1.728825e+00	1.728781e+00	1.728747e+00	1.728679e+00	1.728628e+00	1.728533e+00	1.728470e+00	1.728345e+00	1.728284e+00	1.728114e+00	1.728092e+00	1.727819e+00	1.727949e+00	1.727389e+00	1.727977e+00	1.726568e+00	1.727114e+00	1.728851e+00	1.728865e+00	1.728836e+00	1.728821e+00	1.728774e+00	1.728738e+00	1.728667e+00	1.728614e+00	1.728518e+00	1.728452e+00	1.728336e+00	1.728264e+00	1.728141e+00	1.728061e+00	1.727974e+00	1.727830e+00	1.727936e+00	1.727474e+00	1.727984e+00	1.726359e+00	1.728852e+00	1.728865e+00	1.728837e+00	1.728821e+00	1.728775e+00	1.728739e+00	1.728669e+00	1.728615e+00	1.728519e+00	1.728453e+00	1.728334e+00	1.728261e+00	1.728123e+00	1.728052e+00	1.727886e+00	1.727845e+00	1.727545e+00	1.727746e+00	1.726753e+00	1.727106e+00	1.725888e+00	1.725386e+00	1.725452e+00	1.725518e+00	1.716058e+00	1.715638e+00	1.719350e+00	1.719488e+00	1.707976e+00	1.707726e+00	1.707379e+00	1.707189e+00	1.698232e+00	1.697779e+00	1.694380e+00	1.694077e+00	1.681405e+00	1.680722e+00	1.665011e+00	1.664279e+00	1.641199e+00	1.640646e+00	1.617279e+00	1.617094e+00	1.597300e+00	1.597338e+00	1.581372e+00	1.581931e+00	1.566481e+00	1.567514e+00	1.556431e+00	1.558521e+00	1.544083e+00	1.545694e+00	1.544271e+00	1.548491e+00	1.549624e+00	1.554524e+00	1.726922e+00	1.723742e+00	1.718202e+00	1.716986e+00	1.708527e+00	1.707346e+00	1.698055e+00	1.693124e+00	1.680693e+00	1.665002e+00	1.641421e+00	1.619000e+00	1.600064e+00	1.584643e+00	1.571837e+00	1.559449e+00	1.555939e+00	1.549058e+00	1.556139e+00	1.724987e+00	1.725120e+00	1.715264e+00	1.718990e+00	1.707622e+00	1.706678e+00	1.697453e+00	1.693835e+00	1.680769e+00	1.664921e+00	1.642163e+00	1.619532e+00	1.600391e+00	1.585621e+00	1.572147e+00	1.564076e+00	1.551892e+00	1.555044e+00	1.561489e+00	1.726160e+00	1.723613e+00	1.717433e+00	1.717002e+00	1.708235e+00	1.707176e+00	1.698033e+00	1.693254e+00	1.681056e+00	1.666096e+00	1.643357e+00	1.621895e+00	1.603563e+00	1.589100e+00	1.576513e+00	1.565684e+00	1.560534e+00	1.556544e+00	1.562708e+00	1.724815e+00	1.724536e+00	1.715295e+00	1.718492e+00	1.707518e+00	1.706648e+00	1.697575e+00	1.694006e+00	1.681449e+00	1.666501e+00	1.644593e+00	1.622962e+00	1.604591e+00	1.590478e+00	1.577466e+00	1.569459e+00	1.558529e+00	1.561016e+00	1.566637e+00	1.725408e+00	1.723468e+00	1.716597e+00	1.717106e+00	1.707923e+00	1.707066e+00	1.698109e+00	1.693790e+00	1.681934e+00	1.667769e+00	1.646075e+00	1.625428e+00	1.607652e+00	1.593849e+00	1.581324e+00	1.571668e+00	1.564896e+00	1.563019e+00	1.568297e+00	1.724624e+00	1.723985e+00	1.715369e+00	1.718026e+00	1.707525e+00	1.706790e+00	1.697926e+00	1.694408e+00	1.682442e+00	1.668462e+00	1.647459e+00	1.626850e+00	1.609184e+00	1.595603e+00	1.582905e+00	1.574786e+00	1.564819e+00	1.566419e+00	1.571281e+00	1.724782e+00	1.723293e+00	1.715929e+00	1.717193e+00	1.707712e+00	1.707005e+00	1.698296e+00	1.694456e+00	1.683017e+00	1.669651e+00	1.649042e+00	1.629167e+00	1.611951e+00	1.598597e+00	1.586195e+00	1.577251e+00	1.569345e+00	1.568691e+00	1.573282e+00	1.724474e+00	1.723450e+00	1.715513e+00	1.717540e+00	1.707641e+00	1.706979e+00	1.698386e+00	1.694879e+00	1.683548e+00	1.670492e+00	1.650415e+00	1.630793e+00	1.613801e+00	1.600611e+00	1.588246e+00	1.579843e+00	1.570842e+00	1.571320e+00	1.575620e+00	1.724268e+00	1.723090e+00	1.715415e+00	1.717229e+00	1.707605e+00	1.706953e+00	1.698549e+00	1.695115e+00	1.684137e+00	1.671517e+00	1.651979e+00	1.632841e+00	1.616188e+00	1.603144e+00	1.590963e+00	1.582426e+00	1.573798e+00	1.573769e+00	1.577897e+00	1.724386e+00	1.722915e+00	1.715736e+00	1.717015e+00	1.707837e+00	1.707145e+00	1.698874e+00	1.695311e+00	1.684631e+00	1.672409e+00	1.653242e+00	1.634548e+00	1.618226e+00	1.605310e+00	1.593366e+00	1.584534e+00	1.576640e+00	1.575772e+00	1.579719e+00	1.723836e+00	1.722858e+00	1.715013e+00	1.717187e+00	1.707572e+00	1.706872e+00	1.698817e+00	1.695681e+00	1.685186e+00	1.673220e+00	1.654719e+00	1.636273e+00	1.620187e+00	1.607363e+00	1.595510e+00	1.587203e+00	1.578173e+00	1.578396e+00	1.582290e+00	1.724369e+00	1.722369e+00	1.716036e+00	1.716439e+00	1.708072e+00	1.707235e+00	1.699317e+00	1.695623e+00	1.685579e+00	1.674072e+00	1.655773e+00	1.637939e+00	1.622303e+00	1.609570e+00	1.598172e+00	1.588794e+00	1.582257e+00	1.579817e+00	1.583624e+00	1.723456e+00	1.722599e+00	1.714682e+00	1.717052e+00	1.707577e+00	1.706735e+00	1.699051e+00	1.696086e+00	1.686059e+00	1.674635e+00	1.657117e+00	1.639316e+00	1.623812e+00	1.611149e+00	1.599752e+00	1.591599e+00	1.582426e+00	1.582693e+00	1.586588e+00	1.724433e+00	1.721805e+00	1.716410e+00	1.715804e+00	1.708295e+00	1.707197e+00	1.699631e+00	1.695742e+00	1.686273e+00	1.675329e+00	1.657822e+00	1.640758e+00	1.625856e+00	1.613221e+00	1.602557e+00	1.592534e+00	1.587727e+00	1.583481e+00	1.587390e+00	1.723109e+00	1.722330e+00	1.714409e+00	1.716829e+00	1.707598e+00	1.706537e+00	1.699207e+00	1.696249e+00	1.686616e+00	1.675604e+00	1.658962e+00	1.641788e+00	1.626899e+00	1.614399e+00	1.603625e+00	1.595642e+00	1.586577e+00	1.586816e+00	1.590955e+00	1.724588e+00	1.721238e+00	1.716788e+00	1.715120e+00	1.708422e+00	1.706958e+00	1.699678e+00	1.695613e+00	1.686566e+00	1.675937e+00	1.659116e+00	1.642681e+00	1.628554e+00	1.615957e+00	1.606274e+00	1.595612e+00	1.593007e+00	1.586820e+00	1.591177e+00	1.722994e+00	1.722002e+00	1.714517e+00	1.716477e+00	1.707682e+00	1.706374e+00	1.699306e+00	1.696004e+00	1.686627e+00	1.675889e+00	1.659833e+00	1.643378e+00	1.629236e+00	1.617009e+00	1.607174e+00	1.599117e+00	1.591220e+00	1.590945e+00	1.595404e+00	1.724310e+00	1.721216e+00	1.716030e+00	1.715113e+00	1.708201e+00	1.706464e+00	1.699238e+00	1.695453e+00	1.686232e+00	1.675370e+00	1.659168e+00	1.643171e+00	1.629477e+00	1.617417e+00	1.608093e+00	1.599042e+00	1.596408e+00	1.590348e+00	1.596224e+00	1.549038e+00	1.553234e+00	1.547324e+00	1.552423e+00	1.546818e+00	1.551831e+00	1.546491e+00	1.551686e+00	1.545494e+00	1.550600e+00	1.546180e+00	1.551451e+00	1.544620e+00	1.549662e+00	1.546198e+00	1.551480e+00	1.543024e+00	1.548284e+00	1.557616e+00	1.555532e+00	1.555700e+00	1.555419e+00	1.554599e+00	1.555432e+00	1.553927e+00	1.555579e+00	1.552669e+00	1.559975e+00	1.559631e+00	1.559220e+00	1.559172e+00	1.558289e+00	1.559014e+00	1.557470e+00	1.558907e+00	1.555997e+00	1.563813e+00	1.562281e+00	1.562573e+00	1.562368e+00	1.561825e+00	1.562468e+00	1.561332e+00	1.562577e+00	1.560074e+00	1.565992e+00	1.565428e+00	1.565442e+00	1.565284e+00	1.564775e+00	1.565253e+00	1.564162e+00	1.565188e+00	1.562772e+00	1.569338e+00	1.567952e+00	1.568483e+00	1.568156e+00	1.567953e+00	1.568307e+00	1.567593e+00	1.568396e+00	1.566382e+00	1.571449e+00	1.570537e+00	1.570990e+00	1.570631e+00	1.570515e+00	1.570717e+00	1.570090e+00	1.570722e+00	1.568811e+00	1.574353e+00	1.572979e+00	1.573761e+00	1.573262e+00	1.573379e+00	1.573451e+00	1.573119e+00	1.573539e+00	1.571959e+00	1.576484e+00	1.575230e+00	1.576073e+00	1.575512e+00	1.575744e+00	1.575699e+00	1.575481e+00	1.575776e+00	1.574311e+00	1.578980e+00	1.577604e+00	1.578598e+00	1.577948e+00	1.578330e+00	1.578173e+00	1.578147e+00	1.578276e+00	1.577030e+00	1.581183e+00	1.579633e+00	1.580809e+00	1.580087e+00	1.580607e+00	1.580374e+00	1.580487e+00	1.580527e+00	1.579423e+00	1.583319e+00	1.581983e+00	1.583137e+00	1.582385e+00	1.582972e+00	1.582655e+00	1.582853e+00	1.582786e+00	1.581769e+00	1.585622e+00	1.583838e+00	1.585305e+00	1.584479e+00	1.585234e+00	1.584882e+00	1.585252e+00	1.585120e+00	1.584294e+00	1.587465e+00	1.586254e+00	1.587516e+00	1.586728e+00	1.587464e+00	1.587057e+00	1.587404e+00	1.587226e+00	1.586343e+00	1.589900e+00	1.587960e+00	1.589703e+00	1.588843e+00	1.589794e+00	1.589391e+00	1.589951e+00	1.589719e+00	1.589095e+00	1.591565e+00	1.590592e+00	1.591925e+00	1.591173e+00	1.592019e+00	1.591585e+00	1.592015e+00	1.591797e+00	1.590953e+00	1.594235e+00	1.592260e+00	1.594301e+00	1.593468e+00	1.594581e+00	1.594157e+00	1.594833e+00	1.594528e+00	1.594014e+00	1.595872e+00	1.595108e+00	1.596615e+00	1.595924e+00	1.596903e+00	1.596465e+00	1.596988e+00	1.596730e+00	1.595791e+00	1.599228e+00	1.597429e+00	1.599546e+00	1.598847e+00	1.599924e+00	1.599509e+00	1.600235e+00	1.599605e+00	1.599155e+00	1.540500e+00	1.545113e+00	1.531726e+00	1.537800e+00	1.523552e+00	1.528952e+00	1.523285e+00	1.528174e+00	1.522059e+00	1.526469e+00	1.523612e+00	1.527338e+00	1.527528e+00	1.530823e+00	1.530229e+00	1.533137e+00	1.532386e+00	1.534819e+00	1.532507e+00	1.534570e+00	1.530851e+00	1.532372e+00	1.530157e+00	1.531428e+00	1.525571e+00	1.526083e+00	1.523990e+00	1.523802e+00	1.519040e+00	1.518579e+00	1.512589e+00	1.512303e+00	1.503209e+00	1.502627e+00	1.495057e+00	1.494875e+00	1.488258e+00	1.487542e+00	1.550012e+00	1.537377e+00	1.533448e+00	1.530589e+00	1.529511e+00	1.530979e+00	1.533627e+00	1.535724e+00	1.536811e+00	1.535974e+00	1.533918e+00	1.531503e+00	1.527625e+00	1.525597e+00	1.519507e+00	1.511838e+00	1.502983e+00	1.494080e+00	1.488892e+00	1.552485e+00	1.545502e+00	1.537213e+00	1.535607e+00	1.533831e+00	1.533745e+00	1.536378e+00	1.538029e+00	1.539086e+00	1.538245e+00	1.535485e+00	1.534472e+00	1.528764e+00	1.525542e+00	1.519722e+00	1.513429e+00	1.503294e+00	1.495617e+00	1.487617e+00	1.557321e+00	1.544583e+00	1.540522e+00	1.537245e+00	1.535899e+00	1.536678e+00	1.538748e+00	1.540273e+00	1.540859e+00	1.539650e+00	1.537280e+00	1.534529e+00	1.529936e+00	1.527639e+00	1.521127e+00	1.513356e+00	1.503664e+00	1.494944e+00	1.488767e+00	1.559308e+00	1.551305e+00	1.543793e+00	1.541642e+00	1.539729e+00	1.539260e+00	1.541297e+00	1.542448e+00	1.543016e+00	1.541899e+00	1.539024e+00	1.537486e+00	1.531595e+00	1.528185e+00	1.521840e+00	1.515197e+00	1.504457e+00	1.496529e+00	1.488036e+00	1.563379e+00	1.551092e+00	1.546566e+00	1.543182e+00	1.541569e+00	1.541737e+00	1.543396e+00	1.544468e+00	1.544721e+00	1.543360e+00	1.540803e+00	1.538068e+00	1.532820e+00	1.530201e+00	1.523332e+00	1.515634e+00	1.505058e+00	1.496441e+00	1.489064e+00	1.565346e+00	1.556327e+00	1.549469e+00	1.546878e+00	1.544857e+00	1.544168e+00	1.545765e+00	1.546565e+00	1.546789e+00	1.545493e+00	1.542607e+00	1.540679e+00	1.534633e+00	1.531192e+00	1.524373e+00	1.517417e+00	1.506056e+00	1.497883e+00	1.488831e+00	1.568724e+00	1.556983e+00	1.552001e+00	1.548593e+00	1.546745e+00	1.546417e+00	1.547758e+00	1.548467e+00	1.548480e+00	1.547039e+00	1.544355e+00	1.541719e+00	1.535996e+00	1.533060e+00	1.525873e+00	1.518250e+00	1.506874e+00	1.498272e+00	1.489754e+00	1.570845e+00	1.560909e+00	1.554682e+00	1.551682e+00	1.549610e+00	1.548747e+00	1.549975e+00	1.550498e+00	1.550460e+00	1.549029e+00	1.546148e+00	1.543937e+00	1.537787e+00	1.534338e+00	1.527088e+00	1.519849e+00	1.507926e+00	1.499508e+00	1.489906e+00	1.573640e+00	1.562462e+00	1.557137e+00	1.553710e+00	1.551682e+00	1.550922e+00	1.551993e+00	1.552380e+00	1.552193e+00	1.550680e+00	1.547885e+00	1.545357e+00	1.539295e+00	1.536040e+00	1.528561e+00	1.520988e+00	1.508904e+00	1.500261e+00	1.490689e+00	1.576001e+00	1.565279e+00	1.559728e+00	1.556331e+00	1.554267e+00	1.553230e+00	1.554119e+00	1.554385e+00	1.554114e+00	1.552545e+00	1.549655e+00	1.547202e+00	1.540998e+00	1.537518e+00	1.529863e+00	1.522338e+00	1.509921e+00	1.501238e+00	1.491125e+00	1.578322e+00	1.567728e+00	1.562207e+00	1.558752e+00	1.556600e+00	1.555436e+00	1.556249e+00	1.556316e+00	1.555930e+00	1.554311e+00	1.551385e+00	1.548941e+00	1.542626e+00	1.539031e+00	1.531271e+00	1.523710e+00	1.510995e+00	1.502264e+00	1.491711e+00	1.580978e+00	1.569643e+00	1.564844e+00	1.561064e+00	1.559057e+00	1.557828e+00	1.558380e+00	1.558369e+00	1.557854e+00	1.556102e+00	1.553163e+00	1.550450e+00	1.544220e+00	1.540655e+00	1.532599e+00	1.524752e+00	1.511898e+00	1.502916e+00	1.492334e+00	1.582942e+00	1.572979e+00	1.567410e+00	1.563921e+00	1.561694e+00	1.560133e+00	1.560677e+00	1.560392e+00	1.559774e+00	1.557980e+00	1.554869e+00	1.552450e+00	1.545919e+00	1.541930e+00	1.533886e+00	1.526279e+00	1.512990e+00	1.504126e+00	1.492648e+00	1.585964e+00	1.574240e+00	1.570260e+00	1.566122e+00	1.564198e+00	1.562750e+00	1.562941e+00	1.562607e+00	1.561796e+00	1.559786e+00	1.556713e+00	1.553665e+00	1.547399e+00	1.543640e+00	1.535160e+00	1.526910e+00	1.513668e+00	1.504328e+00	1.493335e+00	1.587707e+00	1.578408e+00	1.572918e+00	1.569390e+00	1.567115e+00	1.565173e+00	1.565413e+00	1.564733e+00	1.563814e+00	1.561738e+00	1.558327e+00	1.555807e+00	1.549040e+00	1.544567e+00	1.536218e+00	1.528456e+00	1.514643e+00	1.505597e+00	1.493263e+00	1.591128e+00	1.579368e+00	1.576169e+00	1.571723e+00	1.569856e+00	1.568139e+00	1.567943e+00	1.567228e+00	1.566044e+00	1.563679e+00	1.560288e+00	1.556790e+00	1.550380e+00	1.546183e+00	1.537226e+00	1.528459e+00	1.514903e+00	1.505126e+00	1.493815e+00	1.593014e+00	1.583854e+00	1.578782e+00	1.575123e+00	1.572851e+00	1.570678e+00	1.570569e+00	1.569476e+00	1.568180e+00	1.565671e+00	1.561771e+00	1.558743e+00	1.551713e+00	1.546735e+00	1.538018e+00	1.529712e+00	1.515556e+00	1.506172e+00	1.493387e+00	1.596571e+00	1.585848e+00	1.582243e+00	1.578094e+00	1.576057e+00	1.573975e+00	1.573602e+00	1.572437e+00	1.570969e+00	1.568110e+00	1.563820e+00	1.559965e+00	1.552886e+00	1.547589e+00	1.538147e+00	1.528948e+00	1.515158e+00	1.505044e+00	1.493086e+00	1.484502e+00	1.483869e+00	1.488904e+00	1.489028e+00	1.485199e+00	1.485240e+00	1.487660e+00	1.487941e+00	1.485872e+00	1.486058e+00	1.487160e+00	1.487479e+00	1.486279e+00	1.486511e+00	1.486917e+00	1.487308e+00	1.485891e+00	1.486257e+00	1.485455e+00	1.488547e+00	1.485665e+00	1.488001e+00	1.486179e+00	1.487523e+00	1.486510e+00	1.487125e+00	1.486092e+00	1.483567e+00	1.489210e+00	1.485372e+00	1.488240e+00	1.486318e+00	1.487840e+00	1.486812e+00	1.487630e+00	1.486517e+00	1.485274e+00	1.489028e+00	1.485852e+00	1.488422e+00	1.486491e+00	1.487901e+00	1.486834e+00	1.487429e+00	1.486367e+00	1.483890e+00	1.489593e+00	1.485643e+00	1.488644e+00	1.486639e+00	1.488211e+00	1.487165e+00	1.487943e+00	1.486850e+00	1.485252e+00	1.489679e+00	1.486125e+00	1.488930e+00	1.486884e+00	1.488366e+00	1.487285e+00	1.487887e+00	1.486846e+00	1.484500e+00	1.490252e+00	1.486125e+00	1.489233e+00	1.487117e+00	1.488716e+00	1.487654e+00	1.488383e+00	1.487333e+00	1.485546e+00	1.490548e+00	1.486610e+00	1.489613e+00	1.487445e+00	1.488991e+00	1.487900e+00	1.488521e+00	1.487507e+00	1.485316e+00	1.491101e+00	1.486781e+00	1.489970e+00	1.487739e+00	1.489351e+00	1.488274e+00	1.488954e+00	1.487956e+00	1.486044e+00	1.491548e+00	1.487238e+00	1.490405e+00	1.488116e+00	1.489715e+00	1.488615e+00	1.489261e+00	1.488269e+00	1.486229e+00	1.492020e+00	1.487515e+00	1.490760e+00	1.488420e+00	1.490036e+00	1.488946e+00	1.489579e+00	1.488632e+00	1.486597e+00	1.492557e+00	1.487901e+00	1.491201e+00	1.488805e+00	1.490443e+00	1.489335e+00	1.490009e+00	1.489035e+00	1.487106e+00	1.492867e+00	1.488212e+00	1.491489e+00	1.489063e+00	1.490672e+00	1.489579e+00	1.490167e+00	1.489269e+00	1.487046e+00	1.493434e+00	1.488477e+00	1.491877e+00	1.489405e+00	1.491063e+00	1.489961e+00	1.490653e+00	1.489701e+00	1.487778e+00	1.493460e+00	1.488741e+00	1.492018e+00	1.489566e+00	1.491149e+00	1.490084e+00	1.490619e+00	1.489775e+00	1.487209e+00	1.493997e+00	1.488844e+00	1.492289e+00	1.489817e+00	1.491447e+00	1.490388e+00	1.491064e+00	1.490143e+00	1.487991e+00	1.493581e+00	1.489005e+00	1.492233e+00	1.489889e+00	1.491402e+00	1.490433e+00	1.490887e+00	1.490117e+00	1.487182e+00	1.494095e+00	1.489023e+00	1.492362e+00	1.490042e+00	1.491523e+00	1.490598e+00	1.491121e+00	1.490227e+00	1.487347e+00	1.493375e+00	1.489087e+00	1.492180e+00	1.490084e+00	1.491443e+00	1.490664e+00	1.490888e+00	1.490200e+00	1.484245e+00	1.484301e+00	1.478587e+00	1.478815e+00	1.472858e+00	1.472988e+00	1.468275e+00	1.468027e+00	1.463386e+00	1.462794e+00	1.457000e+00	1.456339e+00	1.451592e+00	1.451094