# vtk DataFile Version 3.0
vtk output
ASCII
DATASET UNSTRUCTURED_GRID
POINTS 2550 double
-2.181634e-03	2.499905e-01	-1.000000e-01	-2.228383e-03	2.553474e-01	-1.000000e-01	-2.181634e-03	2.499905e-01	-8.299138e-02	-2.228383e-03	2.553474e-01	-8.299138e-02	-2.181634e-03	2.499905e-01	-6.846814e-02	-2.228383e-03	2.553474e-01	-6.846814e-02	-2.181634e-03	2.499905e-01	-5.609415e-02	-2.228383e-03	2.553474e-01	-5.609415e-02	-2.181634e-03	2.499905e-01	-4.557667e-02	-2.228383e-03	2.553474e-01	-4.557667e-02	-2.181634e-03	2.499905e-01	-3.666086e-02	-2.228383e-03	2.553474e-01	-3.666086e-02	-2.181634e-03	2.499905e-01	-2.912513e-02	-2.228383e-03	2.553474e-01	-2.912513e-02	-2.181634e-03	2.499905e-01	-2.277684e-02	-2.228383e-03	2.553474e-01	-2.277684e-02	-2.181634e-03	2.499905e-01	-1.744875e-02	-2.228383e-03	2.553474e-01	-1.744875e-02	-2.181634e-03	2.499905e-01	-1.299573e-02	-2.228383e-03	2.553474e-01	-1.299573e-02	-2.181634e-03	2.499905e-01	-9.291983e-03	-2.228383e-03	2.553474e-01	-9.291983e-03	-2.181634e-03	2.499905e-01	-6.228555e-03	-2.228383e-03	2.553474e-01	-6.228555e-03	-2.181634e-03	2.499905e-01	-3.711194e-03	-2.228383e-03	2.553474e-01	-3.711194e-03	-2.181634e-03	2.499905e-01	-1.658446e-03	-2.228383e-03	2.553474e-01	-1.658446e-03	-2.181634e-03	2.499905e-01	0.000000e+00	-2.228383e-03	2.553474e-01	0.000000e+00	-2.275132e-03	2.607044e-01	-1.000000e-01	-2.275132e-03	2.607044e-01	-8.299138e-02	-2.275132e-03	2.607044e-01	-6.846814e-02	-2.275132e-03	2.607044e-01	-5.609415e-02	-2.275132e-03	2.607044e-01	-4.557667e-02	-2.275132e-03	2.607044e-01	-3.666086e-02	-2.275132e-03	2.607044e-01	-2.912513e-02	-2.275132e-03	2.607044e-01	-2.277684e-02	-2.275132e-03	2.607044e-01	-1.744875e-02	-2.275132e-03	2.607044e-01	-1.299573e-02	-2.275132e-03	2.607044e-01	-9.291983e-03	-2.275132e-03	2.607044e-01	-6.228555e-03	-2.275132e-03	2.607044e-01	-3.711194e-03	-2.275132e-03	2.607044e-01	-1.658446e-03	-2.275132e-03	2.607044e-01	0.000000e+00	-2.321882e-03	2.660613e-01	-1.000000e-01	-2.321882e-03	2.660613e-01	-8.299138e-02	-2.321882e-03	2.660613e-01	-6.846814e-02	-2.321882e-03	2.660613e-01	-5.609415e-02	-2.321882e-03	2.660613e-01	-4.557667e-02	-2.321882e-03	2.660613e-01	-3.666086e-02	-2.321882e-03	2.660613e-01	-2.912513e-02	-2.321882e-03	2.660613e-01	-2.277684e-02	-2.321882e-03	2.660613e-01	-1.744875e-02	-2.321882e-03	2.660613e-01	-1.299573e-02	-2.321882e-03	2.660613e-01	-9.291983e-03	-2.321882e-03	2.660613e-01	-6.228555e-03	-2.321882e-03	2.660613e-01	-3.711194e-03	-2.321882e-03	2.660613e-01	-1.658446e-03	-2.321882e-03	2.660613e-01	-0.000000e+00	-2.368631e-03	2.714182e-01	-1.000000e-01	-2.368631e-03	2.714182e-01	-8.299138e-02	-2.368631e-03	2.714182e-01	-6.846814e-02	-2.368631e-03	2.714182e-01	-5.609415e-02	-2.368631e-03	2.714182e-01	-4.557667e-02	-2.368631e-03	2.714182e-01	-3.666086e-02	-2.368631e-03	2.714182e-01	-2.912513e-02	-2.368631e-03	2.714182e-01	-2.277684e-02	-2.368631e-03	2.714182e-01	-1.744875e-02	-2.368631e-03	2.714182e-01	-1.299573e-02	-2.368631e-03	2.714182e-01	-9.291983e-03	-2.368631e-03	2.714182e-01	-6.228555e-03	-2.368631e-03	2.714182e-01	-3.711194e-03	-2.368631e-03	2.714182e-01	-1.658446e-03	-2.368631e-03	2.714182e-01	0.000000e+00	-2.415380e-03	2.767752e-01	-1.000000e-01	-2.415380e-03	2.767752e-01	-8.299138e-02	-2.415380e-03	2.767752e-01	-6.846814e-02	-2.415380e-03	2.767752e-01	-5.609415e-02	-2.415380e-03	2.767752e-01	-4.557667e-02	-2.415380e-03	2.767752e-01	-3.666086e-02	-2.415380e-03	2.767752e-01	-2.912513e-02	-2.415380e-03	2.767752e-01	-2.277684e-02	-2.415380e-03	2.767752e-01	-1.744875e-02	-2.415380e-03	2.767752e-01	-1.299573e-02	-2.415380e-03	2.767752e-01	-9.291983e-03	-2.415380e-03	2.767752e-01	-6.228555e-03	-2.415380e-03	2.767752e-01	-3.711194e-03	-2.415380e-03	2.767752e-01	-1.658446e-03	-2.415380e-03	2.767752e-01	0.000000e+00	-2.462130e-03	2.821321e-01	-1.000000e-01	-2.462130e-03	2.821321e-01	-8.299138e-02	-2.462130e-03	2.821321e-01	-6.846814e-02	-2.462130e-03	2.821321e-01	-5.609415e-02	-2.462130e-03	2.821321e-01	-4.557667e-02	-2.462130e-03	2.821321e-01	-3.666086e-02	-2.462130e-03	2.821321e-01	-2.912513e-02	-2.462130e-03	2.821321e-01	-2.277684e-02	-2.462130e-03	2.821321e-01	-1.744875e-02	-2.462130e-03	2.821321e-01	-1.299573e-02	-2.462130e-03	2.821321e-01	-9.291983e-03	-2.462130e-03	2.821321e-01	-6.228555e-03	-2.462130e-03	2.821321e-01	-3.711194e-03	-2.462130e-03	2.821321e-01	-1.658446e-03	-2.462130e-03	2.821321e-01	-0.000000e+00	-2.508879e-03	2.874890e-01	-1.000000e-01	-2.508879e-03	2.874890e-01	-8.299138e-02	-2.508879e-03	2.874890e-01	-6.846814e-02	-2.508879e-03	2.874890e-01	-5.609415e-02	-2.508879e-03	2.874890e-01	-4.557667e-02	-2.508879e-03	2.874890e-01	-3.666086e-02	-2.508879e-03	2.874890e-01	-2.912513e-02	-2.508879e-03	2.874890e-01	-2.277684e-02	-2.508879e-03	2.874890e-01	-1.744875e-02	-2.508879e-03	2.874890e-01	-1.299573e-02	-2.508879e-03	2.874890e-01	-9.291983e-03	-2.508879e-03	2.874890e-01	-6.228555e-03	-2.508879e-03	2.874890e-01	-3.711194e-03	-2.508879e-03	2.874890e-01	-1.658446e-03	-2.508879e-03	2.874890e-01	-0.000000e+00	-2.555628e-03	2.928460e-01	-1.000000e-01	-2.555628e-03	2.928460e-01	-8.299138e-02	-2.555628e-03	2.928460e-01	-6.846814e-02	-2.555628e-03	2.928460e-01	-5.609415e-02	-2.555628e-03	2.928460e-01	-4.557667e-02	-2.555628e-03	2.928460e-01	-3.666086e-02	-2.555628e-03	2.928460e-01	-2.912513e-02	-2.555628e-03	2.928460e-01	-2.277684e-02	-2.555628e-03	2.928460e-01	-1.744875e-02	-2.555628e-03	2.928460e-01	-1.299573e-02	-2.555628e-03	2.928460e-01	-9.291983e-03	-2.555628e-03	2.928460e-01	-6.228555e-03	-2.555628e-03	2.928460e-01	-3.711194e-03	-2.555628e-03	2.928460e-01	-1.658446e-03	-2.555628e-03	2.928460e-01	0.000000e+00	-2.602377e-03	2.982029e-01	-1.000000e-01	-2.602378e-03	2.982029e-01	-8.299138e-02	-2.602378e-03	2.982029e-01	-6.846814e-02	-2.602378e-03	2.982029e-01	-5.609415e-02	-2.602378e-03	2.982029e-01	-4.557667e-02	-2.602378e-03	2.982029e-01	-3.666086e-02	-2.602378e-03	2.982029e-01	-2.912513e-02	-2.602378e-03	2.982029e-01	-2.277684e-02	-2.602378e-03	2.982029e-01	-1.744875e-02	-2.602378e-03	2.982029e-01	-1.299573e-02	-2.602378e-03	2.982029e-01	-9.291983e-03	-2.602378e-03	2.982029e-01	-6.228555e-03	-2.602378e-03	2.982029e-01	-3.711194e-03	-2.602378e-03	2.982029e-01	-1.658446e-03	-2.602378e-03	2.982029e-01	0.000000e+00	-2.649127e-03	3.035599e-01	-1.000000e-01	-2.649127e-03	3.035599e-01	-8.299138e-02	-2.649127e-03	3.035599e-01	-6.846814e-02	-2.649127e-03	3.035599e-01	-5.609415e-02	-2.649127e-03	3.035599e-01	-4.557667e-02	-2.649127e-03	3.035599e-01	-3.666086e-02	-2.649127e-03	3.035599e-01	-2.912513e-02	-2.649127e-03	3.035599e-01	-2.277684e-02	-2.649127e-03	3.035599e-01	-1.744875e-02	-2.649127e-03	3.035599e-01	-1.299573e-02	-2.649127e-03	3.035599e-01	-9.291983e-03	-2.649127e-03	3.035599e-01	-6.228555e-03	-2.649127e-03	3.035599e-01	-3.711194e-03	-2.649127e-03	3.035599e-01	-1.658446e-03	-2.649127e-03	3.035599e-01	-0.000000e+00	-2.695876e-03	3.089168e-01	-1.000000e-01	-2.695876e-03	3.089168e-01	-8.299138e-02	-2.695876e-03	3.089168e-01	-6.846814e-02	-2.695876e-03	3.089168e-01	-5.609415e-02	-2.695876e-03	3.089168e-01	-4.557667e-02	-2.695876e-03	3.089168e-01	-3.666086e-02	-2.695876e-03	3.089168e-01	-2.912513e-02	-2.695876e-03	3.089168e-01	-2.277684e-02	-2.695876e-03	3.089168e-01	-1.744875e-02	-2.695876e-03	3.089168e-01	-1.299573e-02	-2.695876e-03	3.089168e-01	-9.291983e-03	-2.695876e-03	3.089168e-01	-6.228555e-03	-2.695876e-03	3.089168e-01	-3.711194e-03	-2.695876e-03	3.089168e-01	-1.658446e-03	-2.695876e-03	3.089168e-01	-0.000000e+00	-2.742625e-03	3.142737e-01	-1.000000e-01	-2.742625e-03	3.142737e-01	-8.299138e-02	-2.742625e-03	3.142737e-01	-6.846814e-02	-2.742625e-03	3.142737e-01	-5.609415e-02	-2.742625e-03	3.142737e-01	-4.557667e-02	-2.742625e-03	3.142737e-01	-3.666086e-02	-2.742625e-03	3.142737e-01	-2.912513e-02	-2.742625e-03	3.142737e-01	-2.277684e-02	-2.742625e-03	3.142737e-01	-1.744875e-02	-2.742625e-03	3.142737e-01	-1.299573e-02	-2.742625e-03	3.142737e-01	-9.291983e-03	-2.742625e-03	3.142737e-01	-6.228555e-03	-2.742625e-03	3.142737e-01	-3.711194e-03	-2.742625e-03	3.142737e-01	-1.658446e-03	-2.742625e-03	3.142737e-01	-0.000000e+00	-2.789375e-03	3.196307e-01	-1.000000e-01	-2.789375e-03	3.196307e-01	-8.299138e-02	-2.789375e-03	3.196307e-01	-6.846814e-02	-2.789375e-03	3.196307e-01	-5.609415e-02	-2.789375e-03	3.196307e-01	-4.557667e-02	-2.789375e-03	3.196307e-01	-3.666086e-02	-2.789375e-03	3.196307e-01	-2.912513e-02	-2.789375e-03	3.196307e-01	-2.277684e-02	-2.789375e-03	3.196307e-01	-1.744875e-02	-2.789375e-03	3.196307e-01	-1.299573e-02	-2.789375e-03	3.196307e-01	-9.291983e-03	-2.789375e-03	3.196307e-01	-6.228555e-03	-2.789375e-03	3.196307e-01	-3.711194e-03	-2.789375e-03	3.196307e-01	-1.658446e-03	-2.789375e-03	3.196307e-01	-0.000000e+00	-2.836124e-03	3.249876e-01	-1.000000e-01	-2.836124e-03	3.249876e-01	-8.299138e-02	-2.836124e-03	3.249876e-01	-6.846814e-02	-2.836124e-03	3.249876e-01	-5.609415e-02	-2.836124e-03	3.249876e-01	-4.557667e-02	-2.836124e-03	3.249876e-01	-3.666086e-02	-2.836124e-03	3.249876e-01	-2.912513e-02	-2.836124e-03	3.249876e-01	-2.277684e-02	-2.836124e-03	3.249876e-01	-1.744875e-02	-2.836124e-03	3.249876e-01	-1.299573e-02	-2.836124e-03	3.249876e-01	-9.291983e-03	-2.836124e-03	3.249876e-01	-6.228555e-03	-2.836124e-03	3.249876e-01	-3.711194e-03	-2.836124e-03	3.249876e-01	-1.658446e-03	-2.836124e-03	3.249876e-01	0.000000e+00	-2.181634e-03	2.499905e-01	1.658446e-03	-2.228383e-03	2.553474e-01	1.658446e-03	-2.181634e-03	2.499905e-01	3.536263e-03	-2.228383e-03	2.553474e-01	3.536263e-03	-2.181634e-03	2.499905e-01	5.729975e-03	-2.228383e-03	2.553474e-01	5.729975e-03	-2.181634e-03	2.499905e-01	8.384366e-03	-2.228383e-03	2.553474e-01	8.384366e-03	-2.181634e-03	2.499905e-01	1.177146e-02	-2.228383e-03	2.553474e-01	1.177146e-02	-2.181634e-03	2.499905e-01	1.640896e-02	-2.228383e-03	2.553474e-01	1.640896e-02	-2.181634e-03	2.499905e-01	2.254697e-02	-2.228383e-03	2.553474e-01	2.254697e-02	-2.181634e-03	2.499905e-01	2.828133e-02	-2.228383e-03	2.553474e-01	2.828133e-02	-2.181634e-03	2.499905e-01	3.248887e-02	-2.228383e-03	
[...]
POINT_DATA 2550

SCALARS Density double 1
LOOKUP_TABLE default
1.728980e+00	1.728982e+00	1.728960e+00	1.728961e+00	1.729011e+00	1.729012e+00	1.729048e+00	1.729049e+00	1.729139e+00	1.729143e+00	1.729217e+00	1.729221e+00	1.729364e+00	1.729373e+00	1.729464e+00	1.729470e+00	1.729670e+00	1.729690e+00	1.729770e+00	1.729756e+00	1.730007e+00	1.730075e+00	1.730204e+00	1.729968e+00	1.730169e+00	1.730582e+00	1.730503e+00	1.729670e+00	1.729243e+00	1.730001e+00	1.728975e+00	1.728956e+00	1.729003e+00	1.729035e+00	1.729119e+00	1.729187e+00	1.729320e+00	1.729402e+00	1.729587e+00	1.729640e+00	1.729883e+00	1.729850e+00	1.730174e+00	1.729764e+00	1.729451e+00	1.728969e+00	1.728951e+00	1.728994e+00	1.729022e+00	1.729098e+00	1.729157e+00	1.729275e+00	1.729347e+00	1.729503e+00	1.729557e+00	1.729741e+00	1.729740e+00	1.729954e+00	1.729578e+00	1.729049e+00	1.728959e+00	1.728943e+00	1.728978e+00	1.728997e+00	1.729058e+00	1.729101e+00	1.729191e+00	1.729245e+00	1.729354e+00	1.729400e+00	1.729511e+00	1.729537e+00	1.729634e+00	1.729301e+00	1.728583e+00	1.728948e+00	1.728935e+00	1.728962e+00	1.728974e+00	1.729021e+00	1.729048e+00	1.729115e+00	1.729152e+00	1.729224e+00	1.729264e+00	1.729319e+00	1.729363e+00	1.729379e+00	1.729073e+00	1.728235e+00	1.728935e+00	1.728925e+00	1.728943e+00	1.728945e+00	1.728975e+00	1.728983e+00	1.729022e+00	1.729035e+00	1.729070e+00	1.729094e+00	1.729101e+00	1.729149e+00	1.729105e+00	1.728814e+00	1.727898e+00	1.728922e+00	1.728915e+00	1.728925e+00	1.728916e+00	1.728930e+00	1.728919e+00	1.728935e+00	1.728925e+00	1.728930e+00	1.728934e+00	1.728910e+00	1.728948e+00	1.728871e+00	1.728584e+00	1.727627e+00	1.728909e+00	1.728905e+00	1.728906e+00	1.728887e+00	1.728886e+00	1.728854e+00	1.728848e+00	1.728811e+00	1.728793e+00	1.728769e+00	1.728725e+00	1.728740e+00	1.728649e+00	1.728355e+00	1.727390e+00	1.728897e+00	1.728895e+00	1.728888e+00	1.728859e+00	1.728843e+00	1.728791e+00	1.728766e+00	1.728698e+00	1.728664e+00	1.728603e+00	1.728554e+00	1.728529e+00	1.728447e+00	1.728132e+00	1.727196e+00	1.728887e+00	1.728887e+00	1.728873e+00	1.728836e+00	1.728809e+00	1.728739e+00	1.728699e+00	1.728603e+00	1.728560e+00	1.728457e+00	1.728416e+00	1.728334e+00	1.728283e+00	1.727927e+00	1.727060e+00	1.728877e+00	1.728880e+00	1.728859e+00	1.728814e+00	1.728775e+00	1.728687e+00	1.728634e+00	1.728504e+00	1.728455e+00	1.728297e+00	1.728275e+00	1.728110e+00	1.728118e+00	1.727698e+00	1.726956e+00	1.728871e+00	1.728875e+00	1.728850e+00	1.728801e+00	1.728756e+00	1.728657e+00	1.728598e+00	1.728446e+00	1.728401e+00	1.728195e+00	1.728206e+00	1.727944e+00	1.728040e+00	1.727520e+00	1.726973e+00	1.728866e+00	1.728871e+00	1.728842e+00	1.728788e+00	1.728737e+00	1.728627e+00	1.728559e+00	1.728381e+00	1.728336e+00	1.728062e+00	1.728116e+00	1.727696e+00	1.727940e+00	1.727230e+00	1.726981e+00	1.728866e+00	1.728872e+00	1.728843e+00	1.728790e+00	1.728739e+00	1.728632e+00	1.728563e+00	1.728392e+00	1.728342e+00	1.728080e+00	1.728126e+00	1.727676e+00	1.728011e+00	1.727018e+00	1.727144e+00	1.725354e+00	1.726695e+00	1.723361e+00	1.721633e+00	1.713410e+00	1.714200e+00	1.710261e+00	1.709962e+00	1.701023e+00	1.700618e+00	1.691966e+00	1.691627e+00	1.678528e+00	1.677339e+00	1.649884e+00	1.649354e+00	1.614693e+00	1.614307e+00	1.595022e+00	1.595523e+00	1.564237e+00	1.566157e+00	1.561921e+00	1.564298e+00	1.536729e+00	1.541477e+00	1.551947e+00	1.558716e+00	1.725469e+00	1.721830e+00	1.713627e+00	1.709745e+00	1.700367e+00	1.691496e+00	1.677837e+00	1.650671e+00	1.616691e+00	1.598989e+00	1.569951e+00	1.568882e+00	1.546604e+00	1.563382e+00	1.725079e+00	1.722052e+00	1.713227e+00	1.709864e+00	1.700259e+00	1.691604e+00	1.678230e+00	1.651770e+00	1.618787e+00	1.601446e+00	1.572867e+00	1.572332e+00	1.550498e+00	1.567054e+00	1.724553e+00	1.722084e+00	1.712761e+00	1.709898e+00	1.700241e+00	1.691856e+00	1.679117e+00	1.653611e+00	1.621722e+00	1.604775e+00	1.576589e+00	1.576232e+00	1.554595e+00	1.570565e+00	1.724190e+00	1.722107e+00	1.712459e+00	1.709987e+00	1.700325e+00	1.692186e+00	1.679939e+00	1.655305e+00	1.624386e+00	1.607756e+00	1.579995e+00	1.579658e+00	1.558313e+00	1.573664e+00	1.723869e+00	1.722006e+00	1.712232e+00	1.710029e+00	1.700459e+00	1.692602e+00	1.680867e+00	1.657192e+00	1.627198e+00	1.610893e+00	1.583561e+00	1.583095e+00	1.562011e+00	1.576664e+00	1.723640e+00	1.721848e+00	1.712126e+00	1.710058e+00	1.700634e+00	1.693050e+00	1.681724e+00	1.658974e+00	1.629801e+00	1.613819e+00	1.586946e+00	1.586292e+00	1.565527e+00	1.579488e+00	1.723464e+00	1.721602e+00	1.712099e+00	1.710036e+00	1.700813e+00	1.693497e+00	1.682511e+00	1.660674e+00	1.632242e+00	1.616597e+00	1.590218e+00	1.589341e+00	1.568939e+00	1.582221e+00	1.723349e+00	1.721281e+00	1.712158e+00	1.709976e+00	1.701008e+00	1.693949e+00	1.683244e+00	1.662295e+00	1.634526e+00	1.619230e+00	1.593389e+00	1.592262e+00	1.572282e+00	1.584904e+00	1.723300e+00	1.720885e+00	1.712284e+00	1.709847e+00	1.701167e+00	1.694306e+00	1.683774e+00	1.663606e+00	1.636401e+00	1.621469e+00	1.596260e+00	1.594895e+00	1.575475e+00	1.587497e+00	1.723295e+00	1.720390e+00	1.712456e+00	1.709655e+00	1.701320e+00	1.694637e+00	1.684292e+00	1.664906e+00	1.638224e+00	1.623672e+00	1.599180e+00	1.597541e+00	1.578765e+00	1.590194e+00	1.723403e+00	1.719867e+00	1.712683e+00	1.709410e+00	1.701407e+00	1.694750e+00	1.684429e+00	1.665519e+00	1.639238e+00	1.625062e+00	1.601482e+00	1.599637e+00	1.581798e+00	1.592788e+00	1.723575e+00	1.719185e+00	1.712865e+00	1.709056e+00	1.701421e+00	1.694810e+00	1.684640e+00	1.666303e+00	1.640497e+00	1.626659e+00	1.604154e+00	1.602164e+00	1.585198e+00	1.595778e+00	1.723982e+00	1.718842e+00	1.712884e+00	1.708836e+00	1.701350e+00	1.694519e+00	1.684066e+00	1.665367e+00	1.640143e+00	1.626472e+00	1.605389e+00	1.603653e+00	1.587590e+00	1.598532e+00	1.549420e+00	1.554027e+00	1.549474e+00	1.556573e+00	1.545527e+00	1.551748e+00	1.549843e+00	1.557200e+00	1.542846e+00	1.549300e+00	1.551137e+00	1.558747e+00	1.538282e+00	1.545391e+00	1.558611e+00	1.561521e+00	1.556480e+00	1.561987e+00	1.554280e+00	1.563150e+00	1.550624e+00	1.562629e+00	1.565716e+00	1.561047e+00	1.566478e+00	1.559243e+00	1.567711e+00	1.555762e+00	1.566576e+00	1.569432e+00	1.565141e+00	1.570228e+00	1.563468e+00	1.571402e+00	1.560012e+00	1.570199e+00	1.572791e+00	1.569001e+00	1.573744e+00	1.567544e+00	1.574984e+00	1.564202e+00	1.573725e+00	1.575957e+00	1.572639e+00	1.576969e+00	1.571303e+00	1.578210e+00	1.568029e+00	1.577071e+00	1.578948e+00	1.576111e+00	1.580042e+00	1.574918e+00	1.581309e+00	1.571752e+00	1.580300e+00	1.581828e+00	1.579451e+00	1.582986e+00	1.578384e+00	1.584265e+00	1.575332e+00	1.583442e+00	1.584644e+00	1.582693e+00	1.585851e+00	1.581740e+00	1.587126e+00	1.578809e+00	1.586459e+00	1.587412e+00	1.585876e+00	1.588716e+00	1.585080e+00	1.590021e+00	1.582308e+00	1.589517e+00	1.590235e+00	1.589039e+00	1.591569e+00	1.588328e+00	1.592845e+00	1.585667e+00	1.592457e+00	1.593122e+00	1.592306e+00	1.594641e+00	1.591793e+00	1.595979e+00	1.589276e+00	1.595642e+00	1.596085e+00	1.595562e+00	1.597583e+00	1.595039e+00	1.598888e+00	1.592388e+00	1.599332e+00	1.599487e+00	1.599524e+00	1.601314e+00	1.599286e+00	1.602402e+00	1.596458e+00	1.545071e+00	1.551589e+00	1.515863e+00	1.524516e+00	1.529199e+00	1.535211e+00	1.520570e+00	1.525700e+00	1.528056e+00	1.533447e+00	1.529966e+00	1.534211e+00	1.534141e+00	1.537409e+00	1.531658e+00	1.533852e+00	1.530129e+00	1.531908e+00	1.527921e+00	1.528028e+00	1.519555e+00	1.519304e+00	1.510152e+00	1.510020e+00	1.499322e+00	1.497879e+00	1.488823e+00	1.488899e+00	1.556121e+00	1.528864e+00	1.539827e+00	1.529877e+00	1.537097e+00	1.537046e+00	1.539934e+00	1.536261e+00	1.533751e+00	1.529896e+00	1.521005e+00	1.510750e+00	1.499293e+00	1.488943e+00	1.560994e+00	1.533764e+00	1.544919e+00	1.534109e+00	1.540998e+00	1.540208e+00	1.542768e+00	1.538763e+00	1.535909e+00	1.531608e+00	1.522196e+00	1.511308e+00	1.499957e+00	1.488631e+00	1.564924e+00	1.537518e+00	1.548882e+00	1.537509e+00	1.544160e+00	1.542791e+00	1.545183e+00	1.541129e+00	1.538148e+00	1.533661e+00	1.524006e+00	1.512458e+00	1.501277e+00	1.488822e+00	1.568814e+00	1.541415e+00	1.552868e+00	1.541051e+00	1.547468e+00	1.545594e+00	1.547797e+00	1.543603e+00	1.540498e+00	1.535706e+00	1.525815e+00	1.513625e+00	1.502512e+00	1.489054e+00	1.572275e+00	1.544971e+00	1.556324e+00	1.544230e+00	1.550426e+00	1.548160e+00	1.550244e+00	1.545978e+00	1.542867e+00	1.537818e+00	1.527823e+00	1.515061e+00	1.503962e+00	1.489590e+00	1.575621e+00	1.548596e+00	1.559692e+00	1.547466e+00	1.553409e+00	1.550801e+00	1.552750e+00	1.548366e+00	1.545248e+00	1.539898e+00	1.529841e+00	1.516550e+00	1.505406e+00	1.490236e+00	1.578804e+00	1.552216e+00	1.562896e+00	1.550668e+00	1.556322e+00	1.553428e+00	1.555243e+00	1.550735e+00	1.547627e+00	1.541963e+00	1.531885e+00	1.518109e+00	1.506853e+00	1.490979e+00	1.581886e+00	1.555896e+00	1.566018e+00	1.553903e+00	1.559216e+00	1.556061e+00	1.557707e+00	1.553048e+00	1.549943e+00	1.543959e+00	1.533902e+00	1.519705e+00	1.508294e+00	1.491831e+00	1.585035e+00	1.559816e+00	1.569262e+00	1.557368e+00	1.562295e+00	1.558906e+00	1.560334e+00	1.555471e+00	1.552290e+00	1.545912e+00	1.535830e+00	1.521204e+00	1.509533e+00	1.492558e+00	1.588086e+00	1.563746e+00	1.572410e+00	1.560811e+00	1.565292e+00	1.561662e+00	1.562807e+00	1.557717e+00	1.554452e+00	1.547711e+00	1.537668e+00	1.522724e+00	1.510764e+00	1.493422e+00	1.591537e+00	1.568133e+00	1.575956e+00	1.564715e+00	1.568728e+00	1.564893e+00	1.565684e+00	1.560259e+00	1.556666e+00	1.549379e+00	1.539169e+00	1.523796e+00	1.511365e+00	1.493753e+00	1.594806e+00	1.572253e+00	1.579349e+00	1.568464e+00	1.571968e+00	1.567878e+00	1.568227e+00	1.562436e+00	1.558536e+00	1.550821e+00	1.540589e+00	1.525073e+00	1.512185e+00	1.494582e+00	1.599512e+00	1.576690e+00	1.583467e+00	1.572983e+00	1.576065e+00	1.571992e+00	1.571876e+00	1.565395e+00	1.560449e+00	1.551941e+00	1.540944e+00	1.525019e+00	1.511282e+00	1.493544e+00	1.482941e+00	1.483338e+00	1.488682e+00	1.488487e+00	1.484174e+00	1.484457e+00	1.487202e+00	1.487638e+00	1.484953e+00	1.485307e+00	1.486581e+00	1.487167e+00	1.484431e+00	1.485077e+00	1.483215e+00	1.489051e+00	1.484631e+00	1.487982e+00	1.485472e+00	1.487344e+00	1.485130e+00	1.483123e+00	1.489335e+00	1.484714e+00	1.488279e+00	1.485695e+00	1.487598e+00	1.485414e+00	1.483238e+00	1.489793e+00	1.484899e+00	1.488605e+00	1.485924e+00	1.487827e+00	1.485686e+00	1.483351e+00	1.490210e+00	1.485091e+00	1.488937e+00	1.486194e+00	1.488112e+00	1.486016e+00	1.483665e+00	1.490769e+00	1.485419e+00	1.489362e+00	1.486553e+00	1.488475e+00	1.486418e+00	1.484038e+00	1.491361e+00	1.485807e+00	1.489834e+00	1.486975e+00	1.488898e+00	1.486878e+00	1.484446e+00	1.491954e+00	1.486213e+00	1.490299e+00	1.487403e+00	1.489320e+00	1.487336e+00	1.484926e+00	1.492587e+00	1.486687e+00	1.490804e+00	1.487884e+00	1.489781e+00	1.487827e+00	1.485232e+00	1.493018e+00	1.487016e+00	1.491150e+00	1.488246e+00	1.490123e+00	1.488203e+00	1.485654e+00	1.493502e+00	1.487446e+00	1.491534e+00	1.488662e+00	1.490484e+00	1.488585e+00	1.485578e+00	1.493498e+00	1.487573e+00	1.491617e+00	1.488882e+00	1.490651e+00	1.488797e+00	1.485898e+00	1.493670e+00	1.487914e+00	1.491743e+00	1.489179e+00	1.490797e+00	1.488936e+00	1.485415e+00	1.493110e+00	1.487928e+00	1.491540e+00	1.489316e+00	1.490555e+00	1.488952e+00	1.483110e+00	1.483365e+00	1.475968e+00	1.474237e+00	1.469034e+00	1.468787e+00	1.459534e+00	1.460347e+00	1.453394e+00	1.452438e+00	1.441647e+00	1.441017e+00	1.427829e+00	1.426569e+00	1.405538e+00	1.404707e+00	1.371194e+00	1.370810e+00	1.336429e+00	1.336165e+00	1.294077e+00	1.295503e+00	1.269143e+00	1.272047e+00	1.240188e+00	1.240902e+00	1.236719e+00	1.246218e+00	1.483171e+00	1.474732e+00	1.468900e+00	1.459563e+00	1.452441e+00	1.440901e+00	1.427084e+00	1.405672e+00	1.372497e+00	1.339158e+00	1.299394e+00	1.276369e+00	1.249434e+00	1.252120e+00	1.483462e+00	1.475009e+00	1.468619e+00	1.459135e+00	1.452542e+00	1.440809e+00	1.427621e+00	1.406323e+00	1.373915e+00	1.341234e+00	1.302500e+00	1.280335e+00	1.255587e+00	1.256920e+00	1.483730e+00	1.475272e+00	1.468491e+00	1.458776e+00	1.452766e+00	1.440970e+00	1.428603e+00	1.407705e+00	1.376312e+00	1.344469e+00	1.306807e+00	1.285111e+00	1.262222e+00	1.261944e+00	1.484046e+00	1.475476e+00	1.468385e+00	1.458521e+00	1.452959e+00	1.441144e+00	1.429480e+00	1.408987e+00	1.378565e+00	1.347430e+00	1.310792e+00	1.289471e+00	1.267977e+00	1.266619e+00	1.484408e+00	1.475665e+00	1.468372e+00	1.458425e+00	1.453192e+00	1.441491e+00	1.430467e+00	1.410527e+00	1.381119e+00	1.350722e+00	1.315080e+00	1.294062e+00	1.273534e+00	1.271382e+00	1.484796e+00	1.475835e+00	1.468420e+00	1.458448e+00	1.453394e+00	1.441902e+00	1.431374e+00	1.412044e+00	1.383582e+00	1.353897e+00	1.319177e+00	1.298475e+00	1.278612e+00	1.276021e+00	1.485149e+00	1.475939e+00	1.468488e+00	1.458556e+00	1.453541e+00	1.442364e+00	1.432205e+00	1.413563e+00	1.385989e+00	1.357022e+00	1.323153e+00	1.302802e+00	1.283348e+00	1.280621e+00	1.485494e+00	1.475994e+00	1.468598e+00	1.458760e+00	1.453640e+00	1.442874e+00	1.432956e+00	1.415077e+00	1.388335e+00	1.360102e+00	1.327020e+00	1.307073e+00	1.287798e+00	1.285249e+00	1.485694e+00	1.475868e+00	1.468655e+00	1.458956e+00	1.453584e+00	1.443288e+00	1.433452e+00	1.416348e+00	1.390329e+00	1.362804e+00	1.330440e+00	1.310986e+00	1.291704e+00	1.289770e+00	1.485855e+00	1.475627e+00	1.468734e+00	1.459219e+00	1.453464e+00	1.443714e+00	1.433874e+00	1.417638e+00	1.392359e+00	1.365589e+00	1.333924e+00	1.315031e+00	1.295477e+00	1.294563e+00	1.485848e+00	1.475177e+00	1.468784e+00	1.459447e+00	1.453162e+00	1.443874e+00	1.433834e+00	1.418299e+00	1.393559e+00	1.367406e+00	1.336422e+00	1.318229e+00	1.298321e+00	1.299213e+00	1.485846e+00	1.474511e+00	1.468676e+00	1.459674e+00	1.452748e+00	1.443954e+00	1.433727e+00	1.419019e+00	1.395040e+00	1.369552e+00	1.339325e+00	1.322091e+00	1.301206e+00	1.304499e+00	1.485951e+00	1.474260e+00	1.468599e+00	1.459573e+00	1.452345e+00	1.443400e+00	1.432901e+00	1.418163e+00	1.394412e+00	1.369160e+00	1.340075e+00	1.323768e+00	1.302883e+00	1.309285e+00	1.237488e+00	1.247317e+00	1.237453e+00	1.245167e+00	1.233883e+00	1.243240e+00	1.232755e+00	1.242049e+00	1.230789e+00	1.240259e+00	1.229386e+00	1.238890e+00	1.228498e+00	1.238034e+00	1.227403e+00	1.236885e+00	1.228219e+00	1.237730e+00	1.228033e+00	1.237422e+00	1.232603e+00	1.242000e+00	1.235181e+00	1.244274e+00	1.249156e+00	1.258329e+00	1.252556e+00	1.264043e+00	1.252876e+00	1.252481e+00	1.250158e+00	1.249382e+00	1.247715e+00	1.246590e+00	1.245852e+00	1.244830e+00	1.245674e+00	1.245280e+00	1.249552e+00	1.250901e+00	1.263768e+00	1.265085e+00	1.258452e+00	1.258953e+00	1.256584e+00	1.256433e+00	1.254908e+00	1.254104e+00	1.253462e+00	1.252574e+00	1.253367e+00	1.252916e+00	1.256815e+00	1.257519e+00	1.268896e+00	1.269356e+00	1.263583e+00	1.264816e+00	1.262311e+00	1.262639e+00	1.261188e+00	1.260697e+00	1.260134e+00	1.259420e+00	1.260114e+00	1.259605e+00	1.262898e+00	1.262919e+00	1.271967e+00	1.270784e+00	1.268357e+00	1.270211e+00	1.267705e+00	1.268524e+00	1.267209e+00	1.267072e+00	1.266608e+00	1.266103e+00	1.266677e+00	1.266170e+00	1.268785e+00	1.268384e+00	1.275157e+00	1.272510e+00	1.273044e+00	1.275356e+00	1.272841e+00	1.274026e+00	1.272806e+00	1.272968e+00	1.272568e+00	1.272267e+00	1.272684e+00	1.272207e+00	1.274022e+00	1.273275e+00	1.277627e+00	1.273690e+00	1.277568e+00	1.280253e+00	1.277808e+00	1.279322e+00	1.278235e+00	1.278692e+00	1.278368e+00	1.278285e+00	1.278534e+00	1.278135e+00	1.279120e+00	1.278147e+00	1.280143e+00	1.274910e+00	1.282005e+00	1.284968e+00	1.282646e+00	1.284415e+00	1.283472e+00	1.284183e+00	1.283927e+00	1.284049e+00	1.284120e+00	1.283825e+00	1.283974e+00	1.282851e+00	1.282558e+00	1.276263e+00	1.286437e+00	1.289579e+00	1.287450e+00	1.289404e+00	1.288631e+00	1.289559e+00	1.289378e+00	1.289693e+00	1.289594e+00	1.289420e+00	1.288742e+00	1.287509e+00	1.284905e+00	1.277649e+00	1.290781e+00	1.294013e+00	1.292210e+00	1.294308e+00	1.293769e+00	1.294889e+00	1.294803e+00	1.295288e+00	1.295042e+00	1.294997e+00	1.293593e+00	1.292349e+00	1.287642e+00	1.279856e+00	1.295335e+00	1.298478e+00	1.297084e+00	1.299195e+00	1.298898e+00	1.300142e+00	1.300149e+00	1.300771e+00	1.300406e+00	1.300467e+00	1.298353e+00	1.297105e+00	1.290282e+00	1.281658e+00	1.299861e+00	1.302811e+00	1.302075e+00	1.304180e+00	1.304199e+00	1.305531e+00	1.305630e+00	1.306332e+00	1.305896e+00	1.306017e+00	1.303446e+00	1.302317e+00	1.293966e+00	1.286078e+00	1.304903e+00	1.307128e+00	1.307175e+00	1.309028e+00	1.309352e+00	1.310721e+00	1.310928e+00	1.311710e+00	1.311257e+00	1.311401e+00	1.308418e+00	1.307437e+00	1.297813e+00	1.287344e+00	1.310506e+00	1.311800e+00	1.312697e+00	1.314493e+00	1.314946e+00	1.316305e+00	1.316537e+00	1.317301e+00	1.316900e+00	1.316932e+00	1.314208e+00	1.313193e+00	1.303394e+00	1.295773e+00	1.295773e+00	1.303394e+00	1.313193e+00	1.314208e+00	1.316932e+00	1.316900e+00	1.317301e+00	1.316537e+00	1.316305e+00	1.314946e+00	1.314493e+00	1.312697e+00	1.311800e+00	1.310506e+00	1.287344e+00	1.297813e+00	1.307437e+00	1.308418e+00	1.311401e+00	1.311257e+00	1.311710e+00	1.310928e+00	1.310721e+00	1.309352e+00	1.309028e+00	1.307175e+00	1.307128e+00	1.304903e+00	1.286078e+00	1.293966e+00	1.302317e+00	1.303446e+00	1.306017e+00	1.305896e+00	1.306332e+00	1.305630e+00	1.305531e+00	1.304199e+00	1.304180e+00	1.302075e+00	1.302811e+00	1.299861e+00	1.281658e+00	1.290282e+00	1.297105e+00	1.298353e+00	1.300467e+00	1.300406e+00	1.300771e+00	1.300149e+00	1.300142e+00	1.298898e+00	1.299195e+00	1.297084e+00	1.298478e+00	1.295335e+00	1.279856e+00	1.287642e+00	1.292349e+00	1.293593e+00	1.294997e+00	1.295042e+00	1.295288e+00	1.294803e+00	1.294889e+00	1.293769e+00	1.294308e+00	1.292210e+00	1.294013e+00	1.290781e+00	1.277649e+00	1.284905e+00	1.287509e+00	1.288742e+00	1.289420e+00	1.289594e+00	1.289693e+00	1.289378e+00	1.289559e+00	1.288631e+00	1.289404e+00	1.287450e+00	1.289579e+00	1.286437e+00	1.276263e+00	1.282558e+00	1.282851e+00	1.283974e+00	1.283825e+00	1.284120e+00	1.284049e+00	1.283927e+00	1.284183e+00	1.283472e+00	1.284415e+00	1.282646e+00	1.284968e+00	1.282005e+00	1.274910e+00	1.280143e+00	1.278147e+00	1.279120e+00	1.278135e+00	1.278534e+00	1.278285e+00	1.278368e+00	1.278692e+00	1.278235e+00	1.279322e+00	1.277808e+00	1.280253e+00	1.277568e+00	1.273690e+00	1.277627e+00	1.273275e+00	1.274022e+00	1.272207e+00	1.272684e+00	1.272267e+00	1.272568e+00	1.272968e+00	1.272806e+00	1.274026e+00	1.272841e+00	1.275356e+00	1.273044e+00	1.272510e+00	1.275157e+00	1.268384e+00	1.268785e+00	1.266170e+00	1.266677e+00	1.266103e+00	1.266608e+00	1.267072e+00	1.267209e+00	1.268524e+00	1.267705e+00	1.270211e+00	1.268357e+00	1.270784e+00	1.271967e+00	1.262919e+00	1.262898e+00	1.259605e+00	1.260114e+00	1.259420e+00	1.260134e+00	1.260697e+00	1.261188e+00	1.262639e+00	1.262311e+00	1.264816e+00	1.263583e+00	1.269356e+00	1.268896e+00	1.257519e+00	1.256815e+00	1.252916e+00	1.253367e+00	1.252574e+00	1.253462e+00	1.254104e+00	1.254908e+00	1.256433e+00	1.256584e+00	1.258953e+00	1.258452e+00	1.265085e+00	1.263768e+00	1.250901e+00	1.249552e+00	1.245280e+00	1.245674e+00	1.244830e+00	1.245852e+00	1.246590e+00	1.247715e+00	1.249382e+00	1.250158e+00	1.252481e+00	1.252876e+00	1.264043e+00	1.252556e+00	1.258329e+00	1.249156e+00	1.244274e+00	1.235181e+00	1.242000e+00	1.232603e+00	1.237422e+00	1.228033e+00	1.237730e+00	1.228219e+00	1.236885e+00	1.227403e+00	1.238034e+00	1.228498e+00	1.238890e+00	1.229386e+00	1.240259e+00	1.230789e+00	1.242049e+00	1.232755e+00	1.243240e+00	1.233883e+00	1.245167e+00	1.237453e+00	1.247317e+00	1.237488e+00	1.309285e+00	1.302883e+00	1.323768e+00	1.340075e+00	1.369160e+00	1.394412e+00	1.418163e+00	1.432901e+00	1.443400e+00	1.452345e+00	1.459573e+00	1.468599e+00	1.474260e+00	1.485951e+00	1.304499e+00	1.301206e+00	1.322091e+00	1.339325e+00	1.369552e+00	1.395040e+00	1.419019e+00	1.433727e+00	1.443954e+00	1.452748e+00	1.459674e+00	1.468676e+00	1.474511e+00	1.485846e+00	1.299213e+00	1.298321e+00	1.318229e+00	1.336422e+00	1.367406e+00	1.393559e+00	1.418299e+00	1.433834e+00	1.443874e+00	1.453162e+00	1.459447e+00	1.468784e+00	1.475177e+00	1.485848e+00	1.294563e+00	1.295477e+00	1.315031e+00	1.333924e+00	1.365589e+00	1.392359e+00	1.417638