# vtk DataFile Version 3.0
vtk output
ASCII
DATASET UNSTRUCTURED_GRID
POINTS 1080 double
-2.181634e-03	2.499905e-01	-1.000000e-01	-2.254355e-03	2.583235e-01	-1.000000e-01	-2.181634e-03	2.499905e-01	-7.436900e-02	-2.254355e-03	2.583235e-01	-7.436900e-02	-2.181634e-03	2.499905e-01	-5.444330e-02	-2.254355e-03	2.583235e-01	-5.444330e-02	-2.181634e-03	2.499905e-01	-3.904290e-02	-2.254355e-03	2.583235e-01	-3.904290e-02	-2.181634e-03	2.499905e-01	-2.722108e-02	-2.254355e-03	2.583235e-01	-2.722108e-02	-2.181634e-03	2.499905e-01	-1.821964e-02	-2.254355e-03	2.583235e-01	-1.821964e-02	-2.181634e-03	2.499905e-01	-1.143261e-02	-2.254355e-03	2.583235e-01	-1.143261e-02	-2.181634e-03	2.499905e-01	-6.376739e-03	-2.254355e-03	2.583235e-01	-6.376739e-03	-2.181634e-03	2.499905e-01	-2.667553e-03	-2.254355e-03	2.583235e-01	-2.667553e-03	-2.181634e-03	2.499905e-01	0.000000e+00	-2.254355e-03	2.583235e-01	0.000000e+00	-2.327076e-03	2.666565e-01	-1.000000e-01	-2.327076e-03	2.666565e-01	-7.436900e-02	-2.327076e-03	2.666565e-01	-5.444330e-02	-2.327076e-03	2.666565e-01	-3.904290e-02	-2.327076e-03	2.666565e-01	-2.722108e-02	-2.327076e-03	2.666565e-01	-1.821964e-02	-2.327076e-03	2.666565e-01	-1.143261e-02	-2.327076e-03	2.666565e-01	-6.376739e-03	-2.327076e-03	2.666565e-01	-2.667553e-03	-2.327076e-03	2.666565e-01	0.000000e+00	-2.399797e-03	2.749895e-01	-1.000000e-01	-2.399797e-03	2.749895e-01	-7.436900e-02	-2.399797e-03	2.749895e-01	-5.444330e-02	-2.399797e-03	2.749895e-01	-3.904290e-02	-2.399797e-03	2.749895e-01	-2.722108e-02	-2.399797e-03	2.749895e-01	-1.821964e-02	-2.399797e-03	2.749895e-01	-1.143261e-02	-2.399797e-03	2.749895e-01	-6.376739e-03	-2.399797e-03	2.749895e-01	-2.667553e-03	-2.399797e-03	2.749895e-01	0.000000e+00	-2.472518e-03	2.833225e-01	-1.000000e-01	-2.472518e-03	2.833225e-01	-7.436900e-02	-2.472518e-03	2.833225e-01	-5.444330e-02	-2.472518e-03	2.833225e-01	-3.904290e-02	-2.472518e-03	2.833225e-01	-2.722108e-02	-2.472518e-03	2.833225e-01	-1.821964e-02	-2.472518e-03	2.833225e-01	-1.143261e-02	-2.472518e-03	2.833225e-01	-6.376739e-03	-2.472518e-03	2.833225e-01	-2.667553e-03	-2.472518e-03	2.833225e-01	0.000000e+00	-2.545239e-03	2.916556e-01	-1.000000e-01	-2.545239e-03	2.916556e-01	-7.436900e-02	-2.545239e-03	2.916556e-01	-5.444330e-02	-2.545239e-03	2.916556e-01	-3.904290e-02	-2.545239e-03	2.916556e-01	-2.722108e-02	-2.545239e-03	2.916556e-01	-1.821964e-02	-2.545239e-03	2.916556e-01	-1.143261e-02	-2.545239e-03	2.916556e-01	-6.376739e-03	-2.545239e-03	2.916556e-01	-2.667553e-03	-2.545239e-03	2.916556e-01	0.000000e+00	-2.617961e-03	2.999886e-01	-1.000000e-01	-2.617961e-03	2.999886e-01	-7.436900e-02	-2.617961e-03	2.999886e-01	-5.444330e-02	-2.617961e-03	2.999886e-01	-3.904290e-02	-2.617961e-03	2.999886e-01	-2.722108e-02	-2.617961e-03	2.999886e-01	-1.821964e-02	-2.617961e-03	2.999886e-01	-1.143261e-02	-2.617961e-03	2.999886e-01	-6.376739e-03	-2.617961e-03	2.999886e-01	-2.667553e-03	-2.617961e-03	2.999886e-01	0.000000e+00	-2.690682e-03	3.083216e-01	-1.000000e-01	-2.690682e-03	3.083216e-01	-7.436900e-02	-2.690682e-03	3.083216e-01	-5.444330e-02	-2.690682e-03	3.083216e-01	-3.904290e-02	-2.690682e-03	3.083216e-01	-2.722108e-02	-2.690682e-03	3.083216e-01	-1.821964e-02	-2.690682e-03	3.083216e-01	-1.143261e-02	-2.690682e-03	3.083216e-01	-6.376739e-03	-2.690682e-03	3.083216e-01	-2.667553e-03	-2.690682e-03	3.083216e-01	0.000000e+00	-2.763403e-03	3.166546e-01	-1.000000e-01	-2.763403e-03	3.166546e-01	-7.436900e-02	-2.763403e-03	3.166546e-01	-5.444330e-02	-2.763403e-03	3.166546e-01	-3.904290e-02	-2.763403e-03	3.166546e-01	-2.722108e-02	-2.763403e-03	3.166546e-01	-1.821964e-02	-2.763403e-03	3.166546e-01	-1.143261e-02	-2.763403e-03	3.166546e-01	-6.376739e-03	-2.763403e-03	3.166546e-01	-2.667553e-03	-2.763403e-03	3.166546e-01	0.000000e+00	-2.836124e-03	3.249876e-01	-1.000000e-01	-2.836124e-03	3.249876e-01	-7.436900e-02	-2.836124e-03	3.249876e-01	-5.444330e-02	-2.836124e-03	3.249876e-01	-3.904290e-02	-2.836124e-03	3.249876e-01	-2.722108e-02	-2.836124e-03	3.249876e-01	-1.821964e-02	-2.836124e-03	3.249876e-01	-1.143261e-02	-2.836124e-03	3.249876e-01	-6.376739e-03	-2.836124e-03	3.249876e-01	-2.667553e-03	-2.836124e-03	3.249876e-01	0.000000e+00	-2.181634e-03	2.499905e-01	2.667553e-03	-2.254355e-03	2.583235e-01	2.667553e-03	-2.181634e-03	2.499905e-01	5.997608e-03	-2.254355e-03	2.583235e-01	5.997608e-03	-2.181634e-03	2.499905e-01	1.053420e-02	-2.254355e-03	2.583235e-01	1.053420e-02	-2.181634e-03	2.499905e-01	1.766815e-02	-2.254355e-03	2.583235e-01	1.766815e-02	-2.181634e-03	2.499905e-01	2.714499e-02	-2.254355e-03	2.583235e-01	2.714499e-02	-2.181634e-03	2.499905e-01	3.363399e-02	-2.254355e-03	2.583235e-01	3.363399e-02	-2.181634e-03	2.499905e-01	3.795560e-02	-2.254355e-03	2.583235e-01	3.795560e-02	-2.181634e-03	2.499905e-01	4.121546e-02	-2.254355e-03	2.583235e-01	4.121546e-02	-2.181634e-03	2.499905e-01	4.387423e-02	-2.254355e-03	2.583235e-01	4.387423e-02	-2.327076e-03	2.666565e-01	2.667553e-03	-2.327076e-03	2.666565e-01	5.997608e-03	-2.327076e-03	2.666565e-01	1.053420e-02	-2.327076e-03	2.666565e-01	1.766815e-02	-2.327076e-03	2.666565e-01	2.714499e-02	-2.327076e-03	2.666565e-01	3.363399e-02	-2.327076e-03	2.666565e-01	3.795560e-02	-2.327076e-03	2.666565e-01	4.121546e-02	-2.327076e-03	2.666565e-01	4.387423e-02	-2.399797e-03	2.749895e-01	2.667553e-03	-2.399797e-03	2.749895e-01	5.997608e-03	-2.399797e-03	2.749895e-01	1.053420e-02	-2.399797e-03	2.749895e-01	1.766815e-02	-2.399797e-03	2.749895e-01	2.714499e-02	-2.399797e-03	2.749895e-01	3.363399e-02	-2.399797e-03	2.749895e-01	3.795560e-02	-2.399797e-03	2.749895e-01	4.121546e-02	-2.399797e-03	2.749895e-01	4.387423e-02	-2.472518e-03	2.833225e-01	2.667553e-03	-2.472518e-03	2.833225e-01	5.997608e-03	-2.472518e-03	2.833225e-01	1.053420e-02	-2.472518e-03	2.833225e-01	1.766815e-02	-2.472518e-03	2.833225e-01	2.714499e-02	-2.472518e-03	2.833225e-01	3.363399e-02	-2.472518e-03	2.833225e-01	3.795560e-02	-2.472518e-03	2.833225e-01	4.121546e-02	-2.472518e-03	2.833225e-01	4.387423e-02	-2.545239e-03	2.916556e-01	2.667553e-03	-2.545239e-03	2.916556e-01	5.997608e-03	-2.545239e-03	2.916556e-01	1.053420e-02	-2.545239e-03	2.916556e-01	1.766815e-02	-2.545239e-03	2.916556e-01	2.714499e-02	-2.545239e-03	2.916556e-01	3.363399e-02	-2.545239e-03	2.916556e-01	3.795560e-02	-2.545239e-03	2.916556e-01	4.121546e-02	-2.545239e-03	2.916556e-01	4.387423e-02	-2.617961e-03	2.999886e-01	2.667553e-03	-2.617961e-03	2.999886e-01	5.997608e-03	-2.617961e-03	2.999886e-01	1.053420e-02	-2.617961e-03	2.999886e-01	1.766815e-02	-2.617961e-03	2.999886e-01	2.714499e-02	-2.617961e-03	2.999886e-01	3.363399e-02	-2.617961e-03	2.999886e-01	3.795560e-02	-2.617961e-03	2.999886e-01	4.121546e-02	-2.617961e-03	2.999886e-01	4.387423e-02	-2.690682e-03	3.083216e-01	2.667553e-03	-2.690682e-03	3.083216e-01	5.997608e-03	-2.690682e-03	3.083216e-01	1.053420e-02	-2.690682e-03	3.083216e-01	1.766815e-02	-2.690682e-03	3.083216e-01	2.714499e-02	-2.690682e-03	3.083216e-01	3.363399e-02	-2.690682e-03	3.083216e-01	3.795560e-02	-2.690682e-03	3.083216e-01	4.121546e-02	-2.690682e-03	3.083216e-01	4.387423e-02	-2.763403e-03	3.166546e-01	2.667553e-03	-2.763403e-03	3.166546e-01	5.997608e-03	-2.763403e-03	3.166546e-01	1.053420e-02	-2.763403e-03	3.166546e-01	1.766815e-02	-2.763403e-03	3.166546e-01	2.714499e-02	-2.763403e-03	3.166546e-01	3.363399e-02	-2.763403e-03	3.166546e-01	3.795560e-02	-2.763403e-03	3.166546e-01	4.121546e-02	-2.763403e-03	3.166546e-01	4.387423e-02	-2.836124e-03	3.249876e-01	2.667553e-03	-2.836124e-03	3.249876e-01	5.997608e-03	-2.836124e-03	3.249876e-01	1.053420e-02	-2.836124e-03	3.249876e-01	1.766815e-02	-2.836124e-03	3.249876e-01	2.714499e-02	-2.836124e-03	3.249876e-01	3.363399e-02	-2.836124e-03	3.249876e-01	3.795560e-02	-2.836124e-03	3.249876e-01	4.121546e-02	-2.836124e-03	3.249876e-01	4.387423e-02	-2.181634e-03	2.499905e-01	4.654179e-02	-2.254355e-03	2.583235e-01	4.654179e-02	-2.181634e-03	2.499905e-01	5.086042e-02	-2.254355e-03	2.583235e-01	5.086042e-02	-2.181634e-03	2.499905e-01	5.517906e-02	-2.254355e-03	2.583235e-01	5.517906e-02	-2.181634e-03	2.499905e-01	5.946436e-02	-2.254355e-03	2.583235e-01	5.946436e-02	-2.327076e-03	2.666565e-01	4.654179e-02	-2.327076e-03	2.666565e-01	5.086042e-02	-2.327076e-03	2.666565e-01	5.517906e-02	-2.327076e-03	2.666565e-01	5.946436e-02	-2.399797e-03	2.749895e-01	4.654179e-02	-2.399797e-03	2.749895e-01	5.086042e-02	-2.399797e-03	2.749895e-01	5.517906e-02	-2.399797e-03	2.749895e-01	5.946436e-02	-2.472518e-03	2.833225e-01	4.654179e-02	-2.472518e-03	2.833225e-01	5.086042e-02	-2.472518e-03	2.833225e-01	5.517906e-02	-2.472518e-03	2.833225e-01	5.946436e-02	-2.545239e-03	2.916556e-01	4.654179e-02	-2.545239e-03	2.916556e-01	5.086042e-02	-2.545239e-03	2.916556e-01	5.517906e-02	-2.545239e-03	2.916556e-01	5.946436e-02	-2.617961e-03	2.999886e-01	4.654179e-02	-2.617961e-03	2.999886e-01	5.086042e-02	-2.617961e-03	2.999886e-01	5.517906e-02	-2.617961e-03	2.999886e-01	5.946436e-02	-2.690682e-03	3.083216e-01	4.654179e-02	-2.690682e-03	3.083216e-01	5.086042e-02	-2.690682e-03	3.083216e-01	5.517906e-02	-2.690682e-03	3.083216e-01	5.946436e-02	-2.763403e-03	3.166546e-01	4.654179e-02	-2.763403e-03	3.166546e-01	5.086042e-02	-2.763403e-03	3.166546e-01	5.517906e-02	-2.763403e-03	3.166546e-01	5.946436e-02	-2.836124e-03	3.249876e-01	4.654179e-02	-2.836124e-03	3.249876e-01	5.086042e-02	-2.836124e-03	3.249876e-01	5.517906e-02	-2.836124e-03	3.249876e-01	5.946436e-02	-2.181634e-03	2.499905e-01	6.374966e-02	-2.254355e-03	2.583235e-01	6.374966e-02	-2.181634e-03	2.499905e-01	6.887896e-02	-2.254355e-03	2.583235e-01	6.887896e-02	-2.181634e-03	2.499905e-01	7.512450e-02	-2.254355e-03	2.583235e-01	7.512450e-02	-2.181634e-03	2.499905e-01	8.254075e-02	-2.254355e-03	2.583235e-01	8.254075e-02	-2.181634e-03	2.499905e-01	9.055595e-02	-2.254355e-03	2.583235e-01	9.055595e-02	-2.181634e-03	2.499905e-01	9.805387e-02	-2.254355e-03	2.583235e-01	9.805387e-02	-2.181634e-03	2.499905e-01	1.043974e-01	-2.254355e-03	2.583235e-01	1.043974e-01	-2.181634e-03	2.499905e-01	1.096084e-01	-2.254355e-03	2.58323
[...]
POINT_DATA 1080

SCALARS Density double 1
LOOKUP_TABLE default
1.729294e+00	1.729284e+00	1.729699e+00	1.729703e+00	1.729241e+00	1.729236e+00	1.730077e+00	1.730095e+00	1.729330e+00	1.729321e+00	1.730721e+00	1.730781e+00	1.729558e+00	1.729431e+00	1.731466e+00	1.731698e+00	1.729274e+00	1.728801e+00	1.730439e+00	1.730707e+00	1.729265e+00	1.729691e+00	1.729192e+00	1.730032e+00	1.729178e+00	1.730605e+00	1.729158e+00	1.731312e+00	1.728563e+00	1.730313e+00	1.729244e+00	1.729683e+00	1.729160e+00	1.729985e+00	1.729071e+00	1.730483e+00	1.728919e+00	1.731092e+00	1.728233e+00	1.730079e+00	1.729216e+00	1.729661e+00	1.729100e+00	1.729889e+00	1.728882e+00	1.730272e+00	1.728469e+00	1.730839e+00	1.727500e+00	1.729897e+00	1.729193e+00	1.729647e+00	1.729061e+00	1.729816e+00	1.728761e+00	1.730083e+00	1.728218e+00	1.730522e+00	1.727141e+00	1.729500e+00	1.729166e+00	1.729623e+00	1.729011e+00	1.729715e+00	1.728645e+00	1.729840e+00	1.728167e+00	1.730069e+00	1.727338e+00	1.728858e+00	1.729153e+00	1.729611e+00	1.728986e+00	1.729659e+00	1.728574e+00	1.729685e+00	1.728028e+00	1.729782e+00	1.727103e+00	1.728377e+00	1.729134e+00	1.729596e+00	1.728960e+00	1.729590e+00	1.728479e+00	1.729503e+00	1.727773e+00	1.729444e+00	1.726814e+00	1.728066e+00	1.729149e+00	1.729596e+00	1.728971e+00	1.729589e+00	1.728505e+00	1.729494e+00	1.727759e+00	1.729483e+00	1.726372e+00	1.728166e+00	1.721766e+00	1.721693e+00	1.716549e+00	1.717448e+00	1.702382e+00	1.701150e+00	1.700296e+00	1.699343e+00	1.663187e+00	1.662779e+00	1.597481e+00	1.598442e+00	1.578919e+00	1.581575e+00	1.536076e+00	1.543130e+00	1.550490e+00	1.559388e+00	1.720256e+00	1.716848e+00	1.701189e+00	1.699454e+00	1.665266e+00	1.603487e+00	1.588008e+00	1.550702e+00	1.566286e+00	1.720131e+00	1.716731e+00	1.701332e+00	1.699484e+00	1.667060e+00	1.607631e+00	1.592497e+00	1.556648e+00	1.571630e+00	1.720909e+00	1.716655e+00	1.701433e+00	1.699390e+00	1.669614e+00	1.613331e+00	1.597251e+00	1.563155e+00	1.576876e+00	1.720783e+00	1.716391e+00	1.701761e+00	1.699679e+00	1.671789e+00	1.617658e+00	1.601866e+00	1.568360e+00	1.581474e+00	1.719548e+00	1.716049e+00	1.702393e+00	1.700433e+00	1.674067e+00	1.621308e+00	1.607236e+00	1.573064e+00	1.585924e+00	1.719375e+00	1.715938e+00	1.702645e+00	1.700663e+00	1.675232e+00	1.624422e+00	1.610794e+00	1.577516e+00	1.590044e+00	1.719675e+00	1.715521e+00	1.702675e+00	1.700552e+00	1.676481e+00	1.628321e+00	1.614920e+00	1.582935e+00	1.594649e+00	1.721275e+00	1.714490e+00	1.702675e+00	1.699924e+00	1.675343e+00	1.629031e+00	1.615732e+00	1.586211e+00	1.598848e+00	1.554189e+00	1.561985e+00	1.543942e+00	1.553753e+00	1.552905e+00	1.563464e+00	1.538003e+00	1.549023e+00	1.568499e+00	1.561269e+00	1.569307e+00	1.556719e+00	1.573997e+00	1.567819e+00	1.575262e+00	1.563939e+00	1.579335e+00	1.573674e+00	1.580402e+00	1.569927e+00	1.584032e+00	1.578946e+00	1.585215e+00	1.575665e+00	1.588634e+00	1.583869e+00	1.589619e+00	1.580889e+00	1.592932e+00	1.588688e+00	1.594272e+00	1.586232e+00	1.597634e+00	1.593464e+00	1.598782e+00	1.590787e+00	1.602548e+00	1.599071e+00	1.604037e+00	1.596802e+00	1.545694e+00	1.555460e+00	1.514309e+00	1.524193e+00	1.525907e+00	1.535322e+00	1.531036e+00	1.537162e+00	1.537344e+00	1.542183e+00	1.524933e+00	1.527408e+00	1.524131e+00	1.524611e+00	1.503950e+00	1.502926e+00	1.487460e+00	1.486889e+00	1.560910e+00	1.531219e+00	1.540433e+00	1.540996e+00	1.545850e+00	1.531183e+00	1.527333e+00	1.505829e+00	1.487678e+00	1.567554e+00	1.537569e+00	1.546829e+00	1.545543e+00	1.550085e+00	1.534924e+00	1.529729e+00	1.507691e+00	1.488306e+00	1.573054e+00	1.541852e+00	1.552292e+00	1.548753e+00	1.553542e+00	1.538622e+00	1.532543e+00	1.510234e+00	1.490173e+00	1.578385e+00	1.546969e+00	1.557808e+00	1.552874e+00	1.557409e+00	1.542670e+00	1.535462e+00	1.512474e+00	1.491685e+00	1.582822e+00	1.553272e+00	1.561654e+00	1.556798e+00	1.560864e+00	1.546328e+00	1.538233e+00	1.516180e+00	1.492058e+00	1.588085e+00	1.559389e+00	1.566750e+00	1.561531e+00	1.564881e+00	1.550093e+00	1.540763e+00	1.518172e+00	1.492345e+00	1.593022e+00	1.564579e+00	1.571775e+00	1.565307e+00	1.568008e+00	1.553110e+00	1.543185e+00	1.520676e+00	1.493789e+00	1.599994e+00	1.571104e+00	1.578365e+00	1.571621e+00	1.572980e+00	1.555931e+00	1.544468e+00	1.520283e+00	1.492590e+00	1.477243e+00	1.477611e+00	1.485697e+00	1.486036e+00	1.480535e+00	1.481201e+00	1.480681e+00	1.481588e+00	1.477954e+00	1.487162e+00	1.481590e+00	1.482481e+00	1.477977e+00	1.487800e+00	1.481823e+00	1.483176e+00	1.478549e+00	1.488598e+00	1.482324e+00	1.484161e+00	1.479181e+00	1.489117e+00	1.482613e+00	1.484786e+00	1.478971e+00	1.490569e+00	1.483085e+00	1.485742e+00	1.478963e+00	1.491012e+00	1.483175e+00	1.486130e+00	1.479254e+00	1.491593e+00	1.483489e+00	1.486486e+00	1.478515e+00	1.490861e+00	1.483254e+00	1.486012e+00	1.477840e+00	1.477272e+00	1.461459e+00	1.461497e+00	1.454377e+00	1.453914e+00	1.438283e+00	1.436881e+00	1.411314e+00	1.410927e+00	1.360330e+00	1.359785e+00	1.301922e+00	1.304118e+00	1.249564e+00	1.253684e+00	1.235419e+00	1.246390e+00	1.477443e+00	1.461320e+00	1.453871e+00	1.437586e+00	1.412995e+00	1.364702e+00	1.310469e+00	1.264460e+00	1.255940e+00	1.477545e+00	1.461157e+00	1.453928e+00	1.437689e+00	1.414933e+00	1.367870e+00	1.316087e+00	1.271122e+00	1.264123e+00	1.477857e+00	1.461439e+00	1.454199e+00	1.438067e+00	1.418132e+00	1.371712e+00	1.323803e+00	1.276477e+00	1.273288e+00	1.477999e+00	1.461302e+00	1.454300e+00	1.438474e+00	1.420102e+00	1.375543e+00	1.329328e+00	1.283478e+00	1.279955e+00	1.478660e+00	1.461350e+00	1.454782e+00	1.439713e+00	1.421750e+00	1.380475e+00	1.334224e+00	1.293862e+00	1.285827e+00	1.478761e+00	1.461117e+00	1.454769e+00	1.439897e+00	1.422934e+00	1.383116e+00	1.338627e+00	1.299811e+00	1.291919e+00	1.478943e+00	1.461166e+00	1.454737e+00	1.439953e+00	1.424639e+00	1.385880e+00	1.344437e+00	1.305404e+00	1.299728e+00	1.479206e+00	1.460799e+00	1.453863e+00	1.439375e+00	1.423494e+00	1.385066e+00	1.346207e+00	1.305758e+00	1.307115e+00	1.233767e+00	1.246856e+00	1.234865e+00	1.247837e+00	1.228530e+00	1.242755e+00	1.228891e+00	1.243552e+00	1.225450e+00	1.240058e+00	1.228108e+00	1.242797e+00	1.228268e+00	1.242221e+00	1.241102e+00	1.255580e+00	1.241018e+00	1.258289e+00	1.255964e+00	1.258377e+00	1.253346e+00	1.254547e+00	1.251285e+00	1.254011e+00	1.252421e+00	1.263683e+00	1.261038e+00	1.264055e+00	1.267227e+00	1.263160e+00	1.264917e+00	1.262185e+00	1.264792e+00	1.262800e+00	1.271747e+00	1.267925e+00	1.273093e+00	1.274899e+00	1.272060e+00	1.273744e+00	1.271442e+00	1.273503e+00	1.271337e+00	1.276549e+00	1.271356e+00	1.280246e+00	1.282275e+00	1.280158e+00	1.282220e+00	1.280581e+00	1.282167e+00	1.280336e+00	1.282191e+00	1.276133e+00	1.285914e+00	1.290239e+00	1.287745e+00	1.290242e+00	1.289021e+00	1.289873e+00	1.288463e+00	1.286621e+00	1.279796e+00	1.292565e+00	1.297453e+00	1.295525e+00	1.298405e+00	1.297683e+00	1.298074e+00	1.297184e+00	1.292785e+00	1.286906e+00	1.299840e+00	1.304419e+00	1.303299e+00	1.306093e+00	1.305765e+00	1.305694e+00	1.305478e+00	1.298545e+00	1.289561e+00	1.308491e+00	1.311321e+00	1.311706e+00	1.314475e+00	1.314139e+00	1.314440e+00	1.313832e+00	1.306965e+00	1.302512e+00	1.302512e+00	1.306965e+00	1.313832e+00	1.314440e+00	1.314139e+00	1.314475e+00	1.311706e+00	1.311321e+00	1.308491e+00	1.289561e+00	1.298545e+00	1.305478e+00	1.305694e+00	1.305765e+00	1.306093e+00	1.303299e+00	1.304419e+00	1.299840e+00	1.286906e+00	1.292785e+00	1.297184e+00	1.298074e+00	1.297683e+00	1.298405e+00	1.295525e+00	1.297453e+00	1.292565e+00	1.279796e+00	1.286621e+00	1.288463e+00	1.289873e+00	1.289021e+00	1.290242e+00	1.287745e+00	1.290239e+00	1.285914e+00	1.276133e+00	1.282191e+00	1.280336e+00	1.282167e+00	1.280581e+00	1.282220e+00	1.280158e+00	1.282275e+00	1.280246e+00	1.271356e+00	1.276549e+00	1.271337e+00	1.273503e+00	1.271442e+00	1.273744e+00	1.272060e+00	1.274899e+00	1.273093e+00	1.267925e+00	1.271747e+00	1.262800e+00	1.264792e+00	1.262185e+00	1.264917e+00	1.263160e+00	1.267227e+00	1.264055e+00	1.261038e+00	1.263683e+00	1.252421e+00	1.254011e+00	1.251285e+00	1.254547e+00	1.253346e+00	1.258377e+00	1.255964e+00	1.258289e+00	1.241018e+00	1.255580e+00	1.241102e+00	1.242221e+00	1.228268e+00	1.242797e+00	1.228108e+00	1.240058e+00	1.225450e+00	1.243552e+00	1.228891e+00	1.242755e+00	1.228530e+00	1.247837e+00	1.234865e+00	1.246856e+00	1.233767e+00	1.307115e+00	1.305758e+00	1.346207e+00	1.385066e+00	1.423494e+00	1.439375e+00	1.453863e+00	1.460799e+00	1.479206e+00	1.299728e+00	1.305404e+00	1.344437e+00	1.385880e+00	1.424639e+00	1.439953e+00	1.454737e+00	1.461166e+00	1.478943e+00	1.291919e+00	1.299811e+00	1.338627e+00	1.383116e+00	1.422934e+00	1.439897e+00	1.454769e+00	1.461117e+00	1.478761e+00	1.285827e+00	1.293862e+00	1.334224e+00	1.380475e+00	1.421750e+00	1.439713e+00	1.454782e+00	1.461350e+00	1.478660e+00	1.279955e+00	1.283478e+00	1.329328e+00	1.375543e+00	1.420102e+00	1.438474e+00	1.454300e+00	1.461302e+00	1.477999e+00	1.273288e+00	1.276477e+00	1.323803e+00	1.371712e+00	1.418132e+00	1.438067e+00	1.454199e+00	1.461439e+00	1.477857e+00	1.264123e+00	1.271122e+00	1.316087e+00	1.367870e+00	1.414933e+00	1.437689e+00	1.453928e+00	1.461157e+00	1.477545e+00	1.255940e+00	1.264460e+00	1.310469e+00	1.364702e+00	1.412995e+00	1.437586e+00	1.453871e+00	1.461320e+00	1.477443e+00	1.246390e+00	1.235419e+00	1.253684e+00	1.249564e+00	1.304118e+00	1.301922e+00	1.359785e+00	1.360330e+00	1.410927e+00	1.411314e+00	1.436881e+00	1.438283e+00	1.453914e+00	1.454377e+00	1.461497e+00	1.461459e+00	1.477272e+00	1.477840e+00	1.486012e+00	1.483254e+00	1.490861e+00	1.478515e+00	1.486486e+00	1.483489e+00	1.491593e+00	1.479254e+00	1.486130e+00	1.483175e+00	1.491012e+00	1.478963e+00	1.485742e+00	1.483085e+00	1.490569e+00	1.478971e+00	1.484786e+00	1.482613e+00	1.489117e+00	1.479181e+00	1.484161e+00	1.482324e+00	1.488598e+00	1.478549e+00	1.483176e+00	1.481823e+00	1.487800e+00	1.477977e+00	1.482481e+00	1.481590e+00	1.487162e+00	1.477954e+00	1.481588e+00	1.480681e+00	1.481201e+00	1.480535e+00	1.486036e+00	1.485697e+00	1.477611e+00	1.477243e+00	1.492590e+00	1.520283e+00	1.544468e+00	1.555931e+00	1.572980e+00	1.571621e+00	1.578365e+00	1.571104e+00	1.599994e+00	1.493789e+00	1.520676e+00	1.543185e+00	1.553110e+00	1.568008e+00	1.565307e+00	1.571775e+00	1.564579e+00	1.593022e+00	1.492345e+00	1.518172e+00	1.540763e+00	1.550093e+00	1.564881e+00	1.561531e+00	1.566750e+00	1.559389e+00	1.588085e+00	1.492058e+00	1.516180e+00	1.538233e+00	1.546328e+00	1.560864e+00	1.556798e+00	1.561654e+00	1.553272e+00	1.582822e+00	1.491685e+00	1.512474e+00	1.535462e+00	1.542670e+00	1.557409e+00	1.552874e+00	1.557808e+00	1.546969e+00	1.578385e+00	1.490173e+00	1.510234e+00	1.532543e+00	1.538622e+00	1.553542e+00	1.548753e+00	1.552292e+00	1.541852e+00	1.573054e+00	1.488306e+00	1.507691e+00	1.529729e+00	1.534924e+00	1.550085e+00	1.545543e+00	1.546829e+00	1.537569e+00	1.567554e+00	1.487678e+00	1.505829e+00	1.527333e+00	1.531183e+00	1.545850e+00	1.540996e+00	1.540433e+00	1.531219e+00	1.560910e+00	1.486889e+00	1.487460e+00	1.502926e+00	1.503950e+00	1.524611e+00	1.524131e+00	1.527408e+00	1.524933e+00	1.542183e+00	1.537344e+00	1.537162e+00	1.531036e+00	1.535322e+00	1.525907e+00	1.524193e+00	1.514309e+00	1.555460e+00	1.545694e+00	1.596802e+00	1.604037e+00	1.599071e+00	1.602548e+00	1.590787e+00	1.598782e+00	1.593464e+00	1.597634e+00	1.586232e+00	1.594272e+00	1.588688e+00	1.592932e+00	1.580889e+00	1.589619e+00	1.583869e+00	1.588634e+00	1.575665e+00	1.585215e+00	1.578946e+00	1.584032e+00	1.569927e+00	1.580402e+00	1.573674e+00	1.579335e+00	1.563939e+00	1.575262e+00	1.567819e+00	1.573997e+00	1.556719e+00	1.569307e+00	1.561269e+00	1.568499e+00	1.549023e+00	1.538003e+00	1.563464e+00	1.552905e+00	1.553753e+00	1.543942e+00	1.561985e+00	1.554189e+00	1.598848e+00	1.586211e+00	1.615732e+00	1.629031e+00	1.675343e+00	1.699924e+00	1.702675e+00	1.714490e+00	1.721275e+00	1.594649e+00	1.582935e+00	1.614920e+00	1.628321e+00	1.676481e+00	1.700552e+00	1.702675e+00	1.715521e+00	1.719675e+00	1.590044e+00	1.577516e+00	1.610794e+00	1.624422e+00	1.675232e+00	1.700663e+00	1.702645e+00	1.715938e+00	1.719375e+00	1.585924e+00	1.573064e+00	1.607236e+00	1.621308e+00	1.674067e+00	1.700433e+00	1.702393e+00	1.716049e+00	1.719548e+00	1.581474e+00	1.568360e+00	1.601866e+00	1.617658e+00	1.671789e+00	1.699679e+00	1.701761e+00	1.716391e+00	1.720783e+00	1.576876e+00	1.563155e+00	1.597251e+00	1.613331e+00	1.669614e+00	1.699390e+00	1.701433e+00	1.716655e+00	1.720909e+00	1.571630e+00	1.556648e+00	1.592497e+00	1.607631e+00	1.667060e+00	1.699484e+00	1.701332e+00	1.716731e+00	1.720131e+00	1.566286e+00	1.550702e+00	1.588008e+00	1.603487e+00	1.665266e+00	1.699454e+00	1.701189e+00	1.716848e+00	1.720256e+00	1.559388e+00	1.550490e+00	1.543130e+00	1.536076e+00	1.581575e+00	1.578919e+00	1.598442e+00	1.597481e+00	1.662779e+00	1.663187e+00	1.699343e+00	1.700296e+00	1.701150e+00	1.702382e+00	1.717448e+00	1.716549e+00	1.721693e+00	1.721766e+00	1.728166e+00	1.726372e+00	1.729483e+00	1.727759e+00	1.729494e+00	1.728505e+00	1.729589e+00	1.728971e+00	1.729149e+00	1.729596e+00	1.728066e+00	1.726814e+00	1.729444e+00	1.727773e+00	1.729503e+00	1.728479e+00	1.729590e+00	1.728960e+00	1.729134e+00	1.729596e+00	1.728377e+00	1.727103e+00	1.729782e+00	1.728028e+00	1.729685e+00	1.728574e+00	1.729659e+00	1.728986e+00	1.729153e+00	1.729611e+00	1.728858e+00	1.727338e+00	1.730069e+00	1.728167e+00	1.729840e+00	1.728645e+00	1.729715e+00	1.729011e+00	1.729166e+00	1.729623e+00	1.729500e+00	1.727141e+00	1.730522e+00	1.728218e+00	1.730083e+00	1.728761e+00	1.729816e+00	1.729061e+00	1.729193e+00	1.729647e+00	1.729897e+00	1.727500e+00	1.730839e+00	1.728469e+00	1.730272e+00	1.728882e+00	1.729889e+00	1.729100e+00	1.729216e+00	1.729661e+00	1.730079e+00	1.728233e+00	1.731092e+00	1.728919e+00	1.730483e+00	1.729071e+00	1.729985e+00	1.729160e+00	1.729244e+00	1.729683e+00	1.730313e+00	1.728563e+00	1.731312e+00	1.729158e+00	1.730605e+00	1.729178e+00	1.730032e+00	1.729192e+00	1.729265e+00	1.729691e+00	1.730707e+00	1.730439e+00	1.728801e+00	1.729274e+00	1.731698e+00	1.731466e+00	1.729431e+00	1.729558e+00	1.730781e+00	1.730721e+00	1.729321e+00	1.729330e+00	1.730095e+00	1.730077e+00	1.729236e+00	1.729241e+00	1.729284e+00	1.729703e+00	1.729699e+00	1.729294e+00	
VECTORS Momentum double