# vtk DataFile Version 3.0
vtk output
ASCII
DATASET UNSTRUCTURED_GRID
POINTS 2720 double
-2.181896e-03	2.500205e-01	-1.000000e-01	-2.216329e-03	2.539661e-01	-1.000000e-01	-2.181896e-03	2.500205e-01	-7.764540e-02	-2.216329e-03	2.539661e-01	-7.764540e-02	-2.181896e-03	2.500205e-01	-6.010200e-02	-2.216329e-03	2.539661e-01	-6.010200e-02	-2.181896e-03	2.500205e-01	-4.636143e-02	-2.216329e-03	2.539661e-01	-4.636143e-02	-2.181896e-03	2.500205e-01	-3.562254e-02	-2.216329e-03	2.539661e-01	-3.562254e-02	-2.181896e-03	2.500205e-01	-2.724950e-02	-2.216329e-03	2.539661e-01	-2.724950e-02	-2.181896e-03	2.500205e-01	-2.073818e-02	-2.216329e-03	2.539661e-01	-2.073818e-02	-2.181896e-03	2.500205e-01	-1.568936e-02	-2.216329e-03	2.539661e-01	-1.568936e-02	-2.181896e-03	2.500205e-01	-1.178728e-02	-2.216329e-03	2.539661e-01	-1.178728e-02	-2.181896e-03	2.500205e-01	-8.782491e-03	-2.216329e-03	2.539661e-01	-8.782491e-03	-2.181896e-03	2.500205e-01	-6.478240e-03	-2.216329e-03	2.539661e-01	-6.478240e-03	-2.181896e-03	2.500205e-01	-4.719558e-03	-2.216329e-03	2.539661e-01	-4.719558e-03	-2.181896e-03	2.500205e-01	-3.384591e-03	-2.216329e-03	2.539661e-01	-3.384591e-03	-2.181896e-03	2.500205e-01	-2.377695e-03	-2.216329e-03	2.539661e-01	-2.377695e-03	-2.181896e-03	2.500205e-01	-1.623947e-03	-2.216329e-03	2.539661e-01	-1.623947e-03	-2.181896e-03	2.500205e-01	-1.064777e-03	-2.216329e-03	2.539661e-01	-1.064777e-03	-2.181896e-03	2.500205e-01	-6.545105e-04	-2.216329e-03	2.539661e-01	-6.545105e-04	-2.181896e-03	2.500205e-01	-3.576203e-04	-2.216329e-03	2.539661e-01	-3.576203e-04	-2.181896e-03	2.500205e-01	-1.465511e-04	-2.216329e-03	2.539661e-01	-1.465511e-04	-2.181896e-03	2.500205e-01	0.000000e+00	-2.216329e-03	2.539661e-01	0.000000e+00	-2.250762e-03	2.579118e-01	-1.000000e-01	-2.250762e-03	2.579118e-01	-7.764540e-02	-2.250762e-03	2.579118e-01	-6.010200e-02	-2.250762e-03	2.579118e-01	-4.636143e-02	-2.250762e-03	2.579118e-01	-3.562254e-02	-2.250762e-03	2.579118e-01	-2.724950e-02	-2.250762e-03	2.579118e-01	-2.073818e-02	-2.250762e-03	2.579118e-01	-1.568936e-02	-2.250762e-03	2.579118e-01	-1.178728e-02	-2.250762e-03	2.579118e-01	-8.782491e-03	-2.250762e-03	2.579118e-01	-6.478240e-03	-2.250762e-03	2.579118e-01	-4.719558e-03	-2.250762e-03	2.579118e-01	-3.384591e-03	-2.250762e-03	2.579118e-01	-2.377695e-03	-2.250762e-03	2.579118e-01	-1.623947e-03	-2.250762e-03	2.579118e-01	-1.064777e-03	-2.250762e-03	2.579118e-01	-6.545105e-04	-2.250762e-03	2.579118e-01	-3.576203e-04	-2.250762e-03	2.579118e-01	-1.465511e-04	-2.250762e-03	2.579118e-01	0.000000e+00	-2.285195e-03	2.618574e-01	-1.000000e-01	-2.285195e-03	2.618574e-01	-7.764540e-02	-2.285195e-03	2.618574e-01	-6.010200e-02	-2.285195e-03	2.618574e-01	-4.636143e-02	-2.285195e-03	2.618574e-01	-3.562254e-02	-2.285195e-03	2.618574e-01	-2.724950e-02	-2.285195e-03	2.618574e-01	-2.073818e-02	-2.285195e-03	2.618574e-01	-1.568936e-02	-2.285195e-03	2.618574e-01	-1.178728e-02	-2.285195e-03	2.618574e-01	-8.782491e-03	-2.285195e-03	2.618574e-01	-6.478240e-03	-2.285195e-03	2.618574e-01	-4.719558e-03	-2.285195e-03	2.618574e-01	-3.384591e-03	-2.285195e-03	2.618574e-01	-2.377695e-03	-2.285195e-03	2.618574e-01	-1.623947e-03	-2.285195e-03	2.618574e-01	-1.064777e-03	-2.285195e-03	2.618574e-01	-6.545105e-04	-2.285195e-03	2.618574e-01	-3.576203e-04	-2.285195e-03	2.618574e-01	-1.465511e-04	-2.285195e-03	2.618574e-01	0.000000e+00	-2.319628e-03	2.658030e-01	-1.000000e-01	-2.319628e-03	2.658030e-01	-7.764540e-02	-2.319628e-03	2.658030e-01	-6.010200e-02	-2.319628e-03	2.658030e-01	-4.636143e-02	-2.319628e-03	2.658030e-01	-3.562254e-02	-2.319628e-03	2.658030e-01	-2.724950e-02	-2.319628e-03	2.658030e-01	-2.073818e-02	-2.319628e-03	2.658030e-01	-1.568936e-02	-2.319628e-03	2.658030e-01	-1.178728e-02	-2.319628e-03	2.658030e-01	-8.782491e-03	-2.319628e-03	2.658030e-01	-6.478240e-03	-2.319628e-03	2.658030e-01	-4.719558e-03	-2.319628e-03	2.658030e-01	-3.384591e-03	-2.319628e-03	2.658030e-01	-2.377695e-03	-2.319628e-03	2.658030e-01	-1.623947e-03	-2.319628e-03	2.658030e-01	-1.064777e-03	-2.319628e-03	2.658030e-01	-6.545105e-04	-2.319628e-03	2.658030e-01	-3.576203e-04	-2.319628e-03	2.658030e-01	-1.465511e-04	-2.319628e-03	2.658030e-01	0.000000e+00	-2.354061e-03	2.697487e-01	-1.000000e-01	-2.354061e-03	2.697487e-01	-7.764540e-02	-2.354061e-03	2.697487e-01	-6.010200e-02	-2.354061e-03	2.697487e-01	-4.636143e-02	-2.354061e-03	2.697487e-01	-3.562254e-02	-2.354061e-03	2.697487e-01	-2.724950e-02	-2.354061e-03	2.697487e-01	-2.073818e-02	-2.354061e-03	2.697487e-01	-1.568936e-02	-2.354061e-03	2.697487e-01	-1.178728e-02	-2.354061e-03	2.697487e-01	-8.782491e-03	-2.354061e-03	2.697487e-01	-6.478240e-03	-2.354061e-03	2.697487e-01	-4.719558e-03	-2.354061e-03	2.697487e-01	-3.384591e-03	-2.354061e-03	2.697487e-01	-2.377695e-03	-2.354061e-03	2.697487e-01	-1.623947e-03	-2.354061e-03	2.697487e-01	-1.064777e-03	-2.354061e-03	2.697487e-01	-6.545105e-04	-2.354061e-03	2.697487e-01	-3.576203e-04	-2.354061e-03	2.697487e-01	-1.465511e-04	-2.354061e-03	2.697487e-01	0.000000e+00	-2.388494e-03	2.736943e-01	-1.000000e-01	-2.388494e-03	2.736943e-01	-7.764540e-02	-2.388494e-03	2.736943e-01	-6.010200e-02	-2.388494e-03	2.736943e-01	-4.636143e-02	-2.388494e-03	2.736943e-01	-3.562254e-02	-2.388494e-03	2.736943e-01	-2.724950e-02	-2.388494e-03	2.736943e-01	-2.073818e-02	-2.388494e-03	2.736943e-01	-1.568936e-02	-2.388494e-03	2.736943e-01	-1.178728e-02	-2.388494e-03	2.736943e-01	-8.782491e-03	-2.388494e-03	2.736943e-01	-6.478240e-03	-2.388494e-03	2.736943e-01	-4.719558e-03	-2.388494e-03	2.736943e-01	-3.384591e-03	-2.388494e-03	2.736943e-01	-2.377695e-03	-2.388494e-03	2.736943e-01	-1.623947e-03	-2.388494e-03	2.736943e-01	-1.064777e-03	-2.388494e-03	2.736943e-01	-6.545105e-04	-2.388494e-03	2.736943e-01	-3.576203e-04	-2.388494e-03	2.736943e-01	-1.465511e-04	-2.388494e-03	2.736943e-01	0.000000e+00	-2.422927e-03	2.776399e-01	-1.000000e-01	-2.422927e-03	2.776399e-01	-7.764540e-02	-2.422927e-03	2.776399e-01	-6.010200e-02	-2.422927e-03	2.776399e-01	-4.636143e-02	-2.422927e-03	2.776399e-01	-3.562254e-02	-2.422927e-03	2.776399e-01	-2.724950e-02	-2.422927e-03	2.776399e-01	-2.073818e-02	-2.422927e-03	2.776399e-01	-1.568936e-02	-2.422927e-03	2.776399e-01	-1.178728e-02	-2.422927e-03	2.776399e-01	-8.782491e-03	-2.422927e-03	2.776399e-01	-6.478240e-03	-2.422927e-03	2.776399e-01	-4.719558e-03	-2.422927e-03	2.776399e-01	-3.384591e-03	-2.422927e-03	2.776399e-01	-2.377695e-03	-2.422927e-03	2.776399e-01	-1.623947e-03	-2.422927e-03	2.776399e-01	-1.064777e-03	-2.422927e-03	2.776399e-01	-6.545105e-04	-2.422927e-03	2.776399e-01	-3.576203e-04	-2.422927e-03	2.776399e-01	-1.465511e-04	-2.422927e-03	2.776399e-01	0.000000e+00	-2.457360e-03	2.815856e-01	-1.000000e-01	-2.457360e-03	2.815856e-01	-7.764540e-02	-2.457360e-03	2.815856e-01	-6.010200e-02	-2.457360e-03	2.815856e-01	-4.636143e-02	-2.457360e-03	2.815856e-01	-3.562254e-02	-2.457360e-03	2.815856e-01	-2.724950e-02	-2.457360e-03	2.815856e-01	-2.073818e-02	-2.457360e-03	2.815856e-01	-1.568936e-02	-2.457360e-03	2.815856e-01	-1.178728e-02	-2.457360e-03	2.815856e-01	-8.782491e-03	-2.457360e-03	2.815856e-01	-6.478240e-03	-2.457360e-03	2.815856e-01	-4.719558e-03	-2.457360e-03	2.815856e-01	-3.384591e-03	-2.457360e-03	2.815856e-01	-2.377695e-03	-2.457360e-03	2.815856e-01	-1.623947e-03	-2.457360e-03	2.815856e-01	-1.064777e-03	-2.457360e-03	2.815856e-01	-6.545105e-04	-2.457360e-03	2.815856e-01	-3.576203e-04	-2.457360e-03	2.815856e-01	-1.465511e-04	-2.457360e-03	2.815856e-01	0.000000e+00	-2.491793e-03	2.855312e-01	-1.000000e-01	-2.491793e-03	2.855312e-01	-7.764540e-02	-2.491793e-03	2.855312e-01	-6.010200e-02	-2.491793e-03	2.855312e-01	-4.636143e-02	-2.491793e-03	2.855312e-01	-3.562254e-02	-2.491793e-03	2.855312e-01	-2.724950e-02	-2.491793e-03	2.855312e-01	-2.073818e-02	-2.491793e-03	2.855312e-01	-1.568936e-02	-2.491793e-03	2.855312e-01	-1.178728e-02	-2.491793e-03	2.855312e-01	-8.782491e-03	-2.491793e-03	2.855312e-01	-6.478240e-03	-2.491793e-03	2.855312e-01	-4.719558e-03	-2.491793e-03	2.855312e-01	-3.384591e-03	-2.491793e-03	2.855312e-01	-2.377695e-03	-2.491793e-03	2.855312e-01	-1.623947e-03	-2.491793e-03	2.855312e-01	-1.064777e-03	-2.491793e-03	2.855312e-01	-6.545105e-04	-2.491793e-03	2.855312e-01	-3.576203e-04	-2.491793e-03	2.855312e-01	-1.465511e-04	-2.491793e-03	2.855312e-01	0.000000e+00	-2.526226e-03	2.894769e-01	-1.000000e-01	-2.526226e-03	2.894769e-01	-7.764540e-02	-2.526226e-03	2.894769e-01	-6.010200e-02	-2.526226e-03	2.894769e-01	-4.636143e-02	-2.526226e-03	2.894769e-01	-3.562254e-02	-2.526226e-03	2.894769e-01	-2.724950e-02	-2.526226e-03	2.894769e-01	-2.073818e-02	-2.526226e-03	2.894769e-01	-1.568936e-02	-2.526226e-03	2.894769e-01	-1.178728e-02	-2.526226e-03	2.894769e-01	-8.782491e-03	-2.526226e-03	2.894769e-01	-6.478240e-03	-2.526226e-03	2.894769e-01	-4.719558e-03	-2.526226e-03	2.894769e-01	-3.384591e-03	-2.526226e-03	2.894769e-01	-2.377695e-03	-2.526226e-03	2.894769e-01	-1.623947e-03	-2.526226e-03	2.894769e-01	-1.064777e-03	-2.526226e-03	2.894769e-01	-6.545105e-04	-2.526226e-03	2.894769e-01	-3.576203e-04	-2.526226e-03	2.894769e-01	-1.465511e-04	-2.526226e-03	2.894769e-01	0.000000e+00	-2.560659e-03	2.934225e-01	-1.000000e-01	-2.560659e-03	2.934225e-01	-7.764540e-02	-2.560659e-03	2.934225e-01	-6.010200e-02	-2.560659e-03	2.934225e-01	-4.636143e-02	-2.560659e-03	2.934225e-01	-3.562254e-02	-2.560659e-03	2.934225e-01	-2.724950e-02	-2.560659e-03	2.934225e-01	-2.073818e-02	-2.560659e-03	2.934225e-01	-1.568936e-02	-2.560659e-03	2.934225e-01	-1.178728e-02	-2.560659e-03	2.934225e-01	-8.782491e-03	-2.560659e-03	2.934225e-01	-6.478240e-03	-2.560659e-03	2.934225e-01	-4.719558e-03	-2.560659e-03	2.934225e-01	-3.384591e-03	-2.560659e-03	2.934225e-01	-2.377695e-03	-2.560659e-03	2.934225e-01	-1.623947e-03	-2.560659e-03	2.934225e-01	-1.064777e-03	-2.560659e-03	2.934225e-01	-6.545105e-04	-2.560659e-03	2.934225e-01	-3.576203e-04	-2.560659e-03	2.934225e-01	-1.465511e-04	-2.560659e-03	2.934225e-01	0.000000e+00	-2.595092e-03	2.973681e-01	-1.000000e-01	-2.595092e-03	2.973681e-01	-7.764540e-02	-
[...]
POINT_DATA 2720

SCALARS Density double 1
LOOKUP_TABLE default
1.257106e+00	1.257106e+00	1.257103e+00	1.257103e+00	1.257128e+00	1.257129e+00	1.257156e+00	1.257157e+00	1.257210e+00	1.257211e+00	1.257259e+00	1.257260e+00	1.257337e+00	1.257339e+00	1.257388e+00	1.257390e+00	1.257476e+00	1.257479e+00	1.257512e+00	1.257513e+00	1.257600e+00	1.257606e+00	1.257613e+00	1.257609e+00	1.257700e+00	1.257706e+00	1.257683e+00	1.257668e+00	1.257775e+00	1.257781e+00	1.257723e+00	1.257696e+00	1.257833e+00	1.257837e+00	1.257732e+00	1.257696e+00	1.257883e+00	1.257883e+00	1.257645e+00	1.257630e+00	1.257105e+00	1.257102e+00	1.257127e+00	1.257153e+00	1.257204e+00	1.257249e+00	1.257323e+00	1.257367e+00	1.257450e+00	1.257475e+00	1.257560e+00	1.257553e+00	1.257644e+00	1.257599e+00	1.257704e+00	1.257617e+00	1.257750e+00	1.257614e+00	1.257789e+00	1.257551e+00	1.257104e+00	1.257101e+00	1.257124e+00	1.257148e+00	1.257197e+00	1.257238e+00	1.257308e+00	1.257347e+00	1.257423e+00	1.257442e+00	1.257520e+00	1.257508e+00	1.257591e+00	1.257545e+00	1.257641e+00	1.257558e+00	1.257680e+00	1.257553e+00	1.257714e+00	1.257492e+00	1.257102e+00	1.257099e+00	1.257120e+00	1.257141e+00	1.257185e+00	1.257220e+00	1.257280e+00	1.257312e+00	1.257378e+00	1.257389e+00	1.257457e+00	1.257441e+00	1.257513e+00	1.257467e+00	1.257554e+00	1.257475e+00	1.257586e+00	1.257469e+00	1.257615e+00	1.257410e+00	1.257100e+00	1.257097e+00	1.257116e+00	1.257133e+00	1.257172e+00	1.257201e+00	1.257254e+00	1.257278e+00	1.257334e+00	1.257340e+00	1.257398e+00	1.257379e+00	1.257442e+00	1.257398e+00	1.257475e+00	1.257402e+00	1.257501e+00	1.257394e+00	1.257526e+00	1.257338e+00	1.257098e+00	1.257095e+00	1.257110e+00	1.257124e+00	1.257155e+00	1.257176e+00	1.257220e+00	1.257235e+00	1.257282e+00	1.257281e+00	1.257329e+00	1.257309e+00	1.257363e+00	1.257321e+00	1.257388e+00	1.257321e+00	1.257409e+00	1.257313e+00	1.257429e+00	1.257259e+00	1.257095e+00	1.257092e+00	1.257105e+00	1.257114e+00	1.257138e+00	1.257153e+00	1.257186e+00	1.257194e+00	1.257231e+00	1.257225e+00	1.257264e+00	1.257242e+00	1.257288e+00	1.257248e+00	1.257306e+00	1.257246e+00	1.257323e+00	1.257237e+00	1.257340e+00	1.257186e+00	1.257092e+00	1.257089e+00	1.257098e+00	1.257102e+00	1.257120e+00	1.257126e+00	1.257149e+00	1.257149e+00	1.257176e+00	1.257166e+00	1.257196e+00	1.257173e+00	1.257210e+00	1.257174e+00	1.257223e+00	1.257169e+00	1.257235e+00	1.257159e+00	1.257249e+00	1.257112e+00	1.257089e+00	1.257086e+00	1.257092e+00	1.257091e+00	1.257102e+00	1.257100e+00	1.257114e+00	1.257107e+00	1.257124e+00	1.257109e+00	1.257131e+00	1.257107e+00	1.257137e+00	1.257103e+00	1.257144e+00	1.257096e+00	1.257153e+00	1.257086e+00	1.257164e+00	1.257041e+00	1.257086e+00	1.257083e+00	1.257085e+00	1.257080e+00	1.257082e+00	1.257073e+00	1.257077e+00	1.257062e+00	1.257070e+00	1.257051e+00	1.257065e+00	1.257041e+00	1.257064e+00	1.257032e+00	1.257066e+00	1.257023e+00	1.257071e+00	1.257013e+00	1.257079e+00	1.256971e+00	1.257083e+00	1.257081e+00	1.257079e+00	1.257069e+00	1.257065e+00	1.257048e+00	1.257042e+00	1.257021e+00	1.257020e+00	1.256997e+00	1.257004e+00	1.256979e+00	1.256995e+00	1.256965e+00	1.256992e+00	1.256954e+00	1.256994e+00	1.256944e+00	1.256999e+00	1.256904e+00	1.257080e+00	1.257078e+00	1.257073e+00	1.257058e+00	1.257047e+00	1.257022e+00	1.257008e+00	1.256980e+00	1.256970e+00	1.256943e+00	1.256943e+00	1.256917e+00	1.256926e+00	1.256899e+00	1.256919e+00	1.256885e+00	1.256917e+00	1.256875e+00	1.256920e+00	1.256836e+00	1.257077e+00	1.257075e+00	1.257068e+00	1.257049e+00	1.257032e+00	1.257001e+00	1.256978e+00	1.256944e+00	1.256926e+00	1.256895e+00	1.256888e+00	1.256860e+00	1.256864e+00	1.256837e+00	1.256851e+00	1.256821e+00	1.256846e+00	1.256810e+00	1.256846e+00	1.256774e+00	1.257075e+00	1.257073e+00	1.257063e+00	1.257040e+00	1.257017e+00	1.256979e+00	1.256949e+00	1.256908e+00	1.256883e+00	1.256847e+00	1.256833e+00	1.256803e+00	1.256801e+00	1.256775e+00	1.256783e+00	1.256757e+00	1.256775e+00	1.256744e+00	1.256773e+00	1.256709e+00	1.257073e+00	1.257071e+00	1.257059e+00	1.257033e+00	1.257005e+00	1.256963e+00	1.256926e+00	1.256880e+00	1.256848e+00	1.256808e+00	1.256787e+00	1.256756e+00	1.256748e+00	1.256722e+00	1.256725e+00	1.256700e+00	1.256713e+00	1.256687e+00	1.256708e+00	1.256652e+00	1.257071e+00	1.257070e+00	1.257055e+00	1.257027e+00	1.256994e+00	1.256947e+00	1.256905e+00	1.256853e+00	1.256814e+00	1.256769e+00	1.256741e+00	1.256707e+00	1.256693e+00	1.256666e+00	1.256664e+00	1.256641e+00	1.256649e+00	1.256625e+00	1.256642e+00	1.256591e+00	1.257070e+00	1.257069e+00	1.257053e+00	1.257023e+00	1.256988e+00	1.256939e+00	1.256892e+00	1.256837e+00	1.256793e+00	1.256745e+00	1.256713e+00	1.256675e+00	1.256657e+00	1.256629e+00	1.256622e+00	1.256600e+00	1.256604e+00	1.256582e+00	1.256594e+00	1.256548e+00	1.257069e+00	1.257068e+00	1.257051e+00	1.257020e+00	1.256983e+00	1.256930e+00	1.256880e+00	1.256821e+00	1.256773e+00	1.256720e+00	1.256682e+00	1.256641e+00	1.256616e+00	1.256586e+00	1.256574e+00	1.256551e+00	1.256550e+00	1.256530e+00	1.256538e+00	1.256494e+00	1.257070e+00	1.257068e+00	1.257051e+00	1.257020e+00	1.256983e+00	1.256931e+00	1.256881e+00	1.256823e+00	1.256774e+00	1.256723e+00	1.256684e+00	1.256643e+00	1.256617e+00	1.256588e+00	1.256572e+00	1.256552e+00	1.256545e+00	1.256531e+00	1.256530e+00	1.256486e+00	1.257524e+00	1.257509e+00	1.256308e+00	1.256313e+00	1.255930e+00	1.255974e+00	1.254442e+00	1.254410e+00	1.252802e+00	1.252814e+00	1.250446e+00	1.250474e+00	1.248752e+00	1.248760e+00	1.245766e+00	1.245780e+00	1.243580e+00	1.243606e+00	1.241155e+00	1.241176e+00	1.239445e+00	1.239470e+00	1.237935e+00	1.237932e+00	1.236504e+00	1.236516e+00	1.235887e+00	1.235898e+00	1.235736e+00	1.235743e+00	1.236299e+00	1.236298e+00	1.237360e+00	1.237371e+00	1.238871e+00	1.238853e+00	1.240565e+00	1.240564e+00	1.242370e+00	1.242370e+00	1.245052e+00	1.245053e+00	1.247068e+00	1.247061e+00	1.249731e+00	1.249710e+00	1.251046e+00	1.251013e+00	1.253160e+00	1.253186e+00	1.254271e+00	1.254218e+00	1.255154e+00	1.255135e+00	1.255459e+00	1.255463e+00	1.256362e+00	1.256342e+00	1.257425e+00	1.256273e+00	1.255895e+00	1.254357e+00	1.252761e+00	1.250459e+00	1.248733e+00	1.245808e+00	1.243645e+00	1.241242e+00	1.239547e+00	1.238002e+00	1.236621e+00	1.236005e+00	1.235861e+00	1.236407e+00	1.237478e+00	1.238944e+00	1.240653e+00	1.242466e+00	1.245100e+00	1.247113e+00	1.249706e+00	1.251022e+00	1.253164e+00	1.254191e+00	1.255102e+00	1.255446e+00	1.256278e+00	1.257361e+00	1.256253e+00	1.255836e+00	1.254332e+00	1.252734e+00	1.250467e+00	1.248737e+00	1.245863e+00	1.243704e+00	1.241328e+00	1.239630e+00	1.238084e+00	1.236728e+00	1.236108e+00	1.235968e+00	1.236501e+00	1.237562e+00	1.239012e+00	1.240717e+00	1.242529e+00	1.245118e+00	1.247131e+00	1.249673e+00	1.251007e+00	1.253112e+00	1.254148e+00	1.255045e+00	1.255411e+00	1.256196e+00	1.257274e+00	1.256209e+00	1.255753e+00	1.254286e+00	1.252687e+00	1.250458e+00	1.248728e+00	1.245914e+00	1.243766e+00	1.241429e+00	1.239736e+00	1.238199e+00	1.236874e+00	1.236257e+00	1.236125e+00	1.236649e+00	1.237697e+00	1.239131e+00	1.240827e+00	1.242635e+00	1.245168e+00	1.247178e+00	1.249661e+00	1.251010e+00	1.253072e+00	1.254116e+00	1.254994e+00	1.255382e+00	1.256118e+00	1.257196e+00	1.256175e+00	1.255681e+00	1.254251e+00	1.252651e+00	1.250463e+00	1.248732e+00	1.245978e+00	1.243839e+00	1.241542e+00	1.239850e+00	1.238322e+00	1.237024e+00	1.236409e+00	1.236281e+00	1.236792e+00	1.237824e+00	1.239240e+00	1.240923e+00	1.242725e+00	1.245204e+00	1.247212e+00	1.249635e+00	1.251000e+00	1.253018e+00	1.254072e+00	1.254931e+00	1.255341e+00	1.256030e+00	1.257111e+00	1.256132e+00	1.255602e+00	1.254210e+00	1.252609e+00	1.250462e+00	1.248732e+00	1.246041e+00	1.243913e+00	1.241659e+00	1.239972e+00	1.238458e+00	1.237190e+00	1.236579e+00	1.236458e+00	1.236959e+00	1.237975e+00	1.239373e+00	1.241042e+00	1.242836e+00	1.245258e+00	1.247262e+00	1.249623e+00	1.251003e+00	1.252975e+00	1.254038e+00	1.254876e+00	1.255308e+00	1.255951e+00	1.257032e+00	1.256094e+00	1.255530e+00	1.254176e+00	1.252573e+00	1.250468e+00	1.248740e+00	1.246109e+00	1.243992e+00	1.241781e+00	1.240099e+00	1.238598e+00	1.237358e+00	1.236750e+00	1.236632e+00	1.237123e+00	1.238122e+00	1.239499e+00	1.241153e+00	1.242939e+00	1.245305e+00	1.247303e+00	1.249606e+00	1.250998e+00	1.252927e+00	1.253998e+00	1.254815e+00	1.255269e+00	1.255868e+00	1.256952e+00	1.256052e+00	1.255457e+00	1.254139e+00	1.252537e+00	1.250472e+00	1.248746e+00	1.246175e+00	1.244071e+00	1.241903e+00	1.240227e+00	1.238741e+00	1.237531e+00	1.236927e+00	1.236815e+00	1.237295e+00	1.238278e+00	1.239636e+00	1.241274e+00	1.243050e+00	1.245361e+00	1.247353e+00	1.249597e+00	1.251001e+00	1.252887e+00	1.253964e+00	1.254762e+00	1.255236e+00	1.255792e+00	1.256876e+00	1.256014e+00	1.255388e+00	1.254106e+00	1.252505e+00	1.250479e+00	1.248757e+00	1.246243e+00	1.244151e+00	1.242025e+00	1.240355e+00	1.238884e+00	1.237701e+00	1.237100e+00	1.236992e+00	1.237462e+00	1.238428e+00	1.239766e+00	1.241388e+00	1.243155e+00	1.245412e+00	1.247398e+00	1.249586e+00	1.250999e+00	1.252844e+00	1.253928e+00	1.254705e+00	1.255198e+00	1.255714e+00	1.256801e+00	1.255973e+00	1.255320e+00	1.254072e+00	1.252472e+00	1.250484e+00	1.248767e+00	1.246308e+00	1.244230e+00	1.242144e+00	1.240481e+00	1.239025e+00	1.237870e+00	1.237273e+00	1.237170e+00	1.237630e+00	1.238581e+00	1.239899e+00	1.241505e+00	1.243262e+00	1.245468e+00	1.247446e+00	1.249581e+00	1.251002e+00	1.252808e+00	1.253896e+00	1.254654e+00	1.255164e+00	1.255643e+00	1.256729e+00	1.255935e+00	1.255257e+00	1.254041e+00	1.252444e+00	1.250491e+00	1.248780e+00	1.246372e+00	1.244307e+00	1.242259e+00	1.240603e+00	1.239162e+00	1.238032e+00	1.237438e+00	1.237339e+00	1.237789e+00	1.238725e+00	1.240023e+00	1.241614e+00	1.243361e+00	1.245518e+00	1.247488e+00	1.249573e+00	1.251000e+00	1.252769e+00	1.253861e+00	1.254601e+00	1.255127e+00	1.255570e+00	1.256658e+00	1.255893e+00	1.255194e+00	1.254008e+00	1.252414e+00	1.250495e+00	1.248790e+00	1.246431e+00	1.244380e+00	1.242369e+00	1.240720e+00	1.239294e+00	1.238190e+00	1.237599e+00	1.237505e+00	1.237946e+00	1.238869e+00	1.240147e+00	1.241724e+00	1.243460e+00	1.245571e+00	1.247532e+00	1.249570e+00	1.251002e+00	1.252736e+00	1.253830e+00	1.254553e+00	1.255093e+00	1.255504e+00	1.256592e+00	1.255855e+00	1.255136e+00	1.253978e+00	1.252388e+00	1.250500e+00	1.248803e+00	1.246488e+00	1.244450e+00	1.242473e+00	1.240830e+00	1.239417e+00	1.238337e+00	1.237746e+00	1.237656e+00	1.238088e+00	1.238998e+00	1.240257e+00	1.241820e+00	1.243546e+00	1.245615e+00	1.247568e+00	1.249562e+00	1.250997e+00	1.252699e+00	1.253795e+00	1.254502e+00	1.255054e+00	1.255437e+00	1.256525e+00	1.255812e+00	1.255077e+00	1.253944e+00	1.252360e+00	1.250501e+00	1.248811e+00	1.246537e+00	1.244513e+00	1.242567e+00	1.240932e+00	1.239533e+00	1.238476e+00	1.237888e+00	1.237803e+00	1.238227e+00	1.239126e+00	1.240367e+00	1.241918e+00	1.243634e+00	1.245664e+00	1.247606e+00	1.249562e+00	1.250997e+00	1.252670e+00	1.253765e+00	1.254458e+00	1.255020e+00	1.255377e+00	1.256466e+00	1.255774e+00	1.255028e+00	1.253916e+00	1.252338e+00	1.250504e+00	1.248822e+00	1.246584e+00	1.244572e+00	1.242652e+00	1.241022e+00	1.239634e+00	1.238596e+00	1.238007e+00	1.237925e+00	1.238341e+00	1.239231e+00	1.240454e+00	1.241994e+00	1.243701e+00	1.245697e+00	1.247631e+00	1.249552e+00	1.250988e+00	1.252635e+00	1.253729e+00	1.254410e+00	1.254979e+00	1.255316e+00	1.256404e+00	1.255729e+00	1.254974e+00	1.253881e+00	1.252311e+00	1.250499e+00	1.248825e+00	1.246618e+00	1.244620e+00	1.242726e+00	1.241103e+00	1.239727e+00	1.238707e+00	1.238121e+00	1.238043e+00	1.238454e+00	1.239337e+00	1.240545e+00	1.242075e+00	1.243773e+00	1.245739e+00	1.247663e+00	1.249554e+00	1.250988e+00	1.252611e+00	1.253702e+00	1.254372e+00	1.254946e+00	1.255265e+00	1.256360e+00	1.255699e+00	1.254940e+00	1.253861e+00	1.252298e+00	1.250503e+00	1.248836e+00	1.246650e+00	1.244660e+00	1.242782e+00	1.241162e+00	1.239793e+00	1.238784e+00	1.238196e+00	1.238119e+00	1.238525e+00	1.239400e+00	1.240597e+00	1.242121e+00	1.243812e+00	1.245755e+00	1.247671e+00	1.249543e+00	1.250975e+00	1.252580e+00	1.253670e+00	1.254331e+00	1.254909e+00	1.255215e+00	1.256305e+00	1.255656e+00	1.254893e+00	1.253826e+00	1.252272e+00	1.250489e+00	1.248830e+00	1.246664e+00	1.244687e+00	1.242828e+00	1.241213e+00	1.239853e+00	1.238856e+00	1.238274e+00	1.238198e+00	1.238603e+00	1.239475e+00	1.240665e+00	1.242180e+00	1.243863e+00	1.245790e+00	1.247697e+00	1.249555e+00	1.250978e+00	1.252566e+00	1.253655e+00	1.254303e+00	1.254884e+00	1.255179e+00	1.256299e+00	1.255670e+00	1.254871e+00	1.253843e+00	1.252292e+00	1.250489e+00	1.248848e+00	1.246669e+00	1.244684e+00	1.242840e+00	1.241230e+00	1.239865e+00	1.238859e+00	1.238280e+00	1.238204e+00	1.238603e+00	1.239469e+00	1.240667e+00	1.242182e+00	1.243855e+00	1.245766e+00	1.247669e+00	1.249563e+00	1.250972e+00	1.252533e+00	1.253665e+00	1.254286e+00	1.254862e+00	1.255173e+00	1.256182e+00	1.256107e+00	1.256210e+00	1.256210e+00	1.256177e+00	1.256132e+00	1.256173e+00	1.256163e+00	1.256141e+00	1.256118e+00	1.256121e+00	1.256114e+00	1.256081e+00	1.256074e+00	1.256045e+00	1.256047e+00	1.255995e+00	1.255999e+00	1.255945e+00	1.255953e+00	1.255886e+00	1.255895e+00	1.255826e+00	1.255836e+00	1.255763e+00	1.255773e+00	1.255704e+00	1.255714e+00	1.255651e+00	1.255660e+00	1.255607e+00	1.255616e+00	1.255576e+00	1.255585e+00	1.255554e+00	1.255562e+00	1.255544e+00	1.255550e+00	1.256054e+00	1.256159e+00	1.256076e+00	1.256116e+00	1.256067e+00	1.256070e+00	1.256031e+00	1.256010e+00	1.255966e+00	1.255926e+00	1.255873e+00	1.255820e+00	1.255763e+00	1.255709e+00	1.255659e+00	1.255618e+00	1.255589e+00	1.255568e+00	1.255558e+00	1.255988e+00	1.256087e+00	1.256011e+00	1.256051e+00	1.256008e+00	1.256016e+00	1.255983e+00	1.255968e+00	1.255933e+00	1.255900e+00	1.255855e+00	1.255809e+00	1.255757e+00	1.255707e+00	1.255661e+00	1.255622e+00	1.255594e+00	1.255575e+00	1.255564e+00	1.255927e+00	1.256017e+00	1.255949e+00	1.255987e+00	1.255948e+00	1.255957e+00	1.255928e+00	1.255918e+00	1.255888e+00	1.255861e+00	1.255823e+00	1.255784e+00	1.255739e+00	1.255696e+00	1.255656e+00	1.255621e+00	1.255597e+00	1.255580e+00	1.255571e+00	1.255856e+00	1.255938e+00	1.255878e+00	1.255913e+00	1.255879e+00	1.255890e+00	1.255867e+00	1.255861e+00	1.255837e+00	1.255818e+00	1.255789e+00	1.255758e+00	1.255722e+00	1.255685e+00	1.255651e+00	1.255622e+00	1.255601e+00	1.255585e+00	1.255577e+00	1.255794e+00	1.255866e+00	1.255814e+00	1.255845e+00	1.255817e+00	1.255827e+00	1.255808e+00	1.255805e+00	1.255787e+00	1.255773e+00	1.255750e+00	1.255726e+00	1.255698e+00	1.255669e+00	1.255642e+00	1.255619e+00	1.255602e+00	1.255590e+00	1.255583e+00	1.255726e+00	1.255790e+00	1.255745e+00	1.255773e+00	1.255750e+00	1.255760e+00	1.255746e+00	1.255746e+00	1.255733e+00	1.255725e+00	1.255709e+00	1.255693e+00	1.255673e+00	1.255653e+00	1.255634e+00	1.255616e+00	1.255604e+00	1.255594e+00	1.255589e+00	1.255666e+00	1.255721e+00	1.255683e+00	1.255708e+00	1.255688e+00	1.255699e+00	1.255688e+00	1.255690e+00	1.255681e+00	1.255678e+00	1.255668e+00	1.255659e+00	1.255647e+00	1.255635e+00	1.255622e+00	1.255612e+00	1.255604e+00	1.255598e+00	1.255595e+00	1.255602e+00	1.255650e+00	1.255618e+00	1.255640e+00	1.255625e+00	1.255635e+00	1.255628e+00	1.255632e+00	1.255628e+00	1.255629e+00	1.255626e+00	1.255624e+00	1.255620e+00	1.255617e+00	1.255612e+00	1.255608e+00	1.255605e+00	1.255602e+00	1.255601e+00	1.255544e+00	1.255585e+00	1.255559e+00	1.255578e+00	1.255566e+00	1.255577e+00	1.255572e+00	1.255579e+00	1.255578e+00	1.255583e+00	1.255586e+00	1.255590e+00	1.255594e+00	1.255598e+00	1.255600e+00	1.255603e+00	1.255604e+00	1.255605e+00	1.255606e+00	1.255485e+00	1.255519e+00	1.255498e+00	1.255515e+00	1.255506e+00	1.255517e+00	1.255516e+00	1.255524e+00	1.255528e+00	1.255537e+00	1.255546e+00	1.255557e+00	1.255568e+00	1.255580e+00	1.255590e+00	1.255599e+00	1.255605e+00	1.255609e+00	1.255611e+00	1.255430e+00	1.255458e+00	1.255442e+00	1.255457e+00	1.255452e+00	1.255462e+00	1.255464e+00	1.255474e+00	1.255482e+00	1.255495e+00	1.255508e+00	1.255526e+00	1.255543e+00	1.255562e+00	1.255579e+00	1.255594e+00	1.255605e+00	1.255612e+00	1.255616e+00	1.255373e+00	1.255396e+00	1.255384e+00	1.255397e+00	1.255395e+00	1.255406e+00	1.255411e+00	1.255424e+00	1.255436e+00	1.255454e+00	1.255473e+00	1.255496e+00	1.255521e+00	1.255547e+00	1.255571e+00	1.255591e+00	1.255606e+00	1.255616e+00	1.255621e+00	1.255322e+00	1.255340e+00	1.255333e+00	1.255345e+00	1.255345e+00	1.255357e+00	1.255364e+00	1.255379e+00	1.255395e+00	1.255416e+00	1.255440e+00	1.255469e+00	1.255500e+00	1.255532e+00	1.255562e+00	1.255588e+00	1.255606e+00	1.255619e+00	1.255626e+00	1.255268e+00	1.255283e+00	1.255280e+00	1.255290e+00	1.255294e+00	1.255307e+00	1.255318e+00	1.255336e+00	1.255356e+00	1.255383e+00	1.255413e+00	1.255448e+00	1.255485e+00	1.255523e+00	1.255557e+00	1.255587e+00	1.255608e+00	1.255623e+00	1.255631e+00	1.255224e+00	1.255235e+00	1.255235e+00	1.255245e+00	1.255251e+00	1.255265e+00	1.255279e+00	1.255299e+00	1.255323e+00	1.255353e+00	1.255388e+00	1.255428e+00	1.255470e+00	1.255513e+00	1.255552e+00	1.255585e+00	1.255609e+00	1.255626e+00	1.255635e+00	1.255179e+00	1.255189e+00	1.255192e+00	1.255203e+00	1.255213e+00	1.255229e+00	1.255247e+00	1.255272e+00	1.255300e+00	1.255335e+00	1.255375e+00	1.255419e+00	1.255464e+00	1.255510e+00	1.255551e+00	1.255587e+00	1.255612e+00	1.255630e+00	1.255639e+00	1.255146e+00	1.255155e+00	1.255160e+00	1.255170e+00	1.255182e+00	1.255199e+00	1.255220e+00	1.255246e+00	1.255278e+00	1.255316e+00	1.255359e+00	1.255406e+00	1.255456e+00	1.255505e+00	1.255549e+00	1.255587e+00	1.255614e+00	1.255634e+00	1.255644e+00	1.255138e+00	1.255139e+00	1.255153e+00	1.255161e+00	1.255177e+00	1.255196e+00	1.255219e+00	1.255248e+00	1.255281e+00	1.255321e+00	1.255364e+00	1.255412e+00	1.255462e+00	1.255511e+00	1.255555e+00	1.255593e+00	1.255619e+00	1.255639e+00	1.255648e+00	1.255648e+00	1.255639e+00	1.255619e+00	1.255593e+00	1.255555e+00	1.255511e+00	1.255462e+00	1.255412e+00	1.255364e+00	1.255321e+00	1.255281e+00	1.255248e+00	1.255219e+00	1.255196e+00	1.255177e+00	1.255161e+00	1.255153e+00	1.255139e+00	1.255138e+00	1.255644e+00	1.255634e+00	1.255614e+00	1.255587e+00	1.255549e+00	1.255505e+00	1.255456e+00	1.255406e+00	1.255359e+00	1.255316e+00	1.255278e+00	1.255246e+00	1.255220e+00	1.255199e+00	1.255182e+00	1.255170e+00	1.255160e+00	1.255155e+00	1.255146e+00	1.255639e+00	1.255630e+00	1.255612e+00	1.255587e+00	1.255551e+00	1.255510e+00	1.255464e+00	1.255419e+00	1.255375e+00	1.255335e+00	1.255300e+00	1.255272e+00	1.255247e+00	1.255229e+00	1.255213e+00	1.255203e+00	1.255192e+00	1.255189e+00	1.255179e+00	1.255635e+00	1.255626e+00	1.255609e+00	1.255585e+00	1.255552e+00	1.255513e+00	1.255470e+00	1.255428e+00	1.255388e+00	1.255353e+00	1.255323e+00	1.255299e+00	1.255279e+00	1.255265e+00	1.255251e+00	1.255245e+00	1.255235e+00	1.255235e+00	1.255224e+00	1.255631e+00	1.255623e+00	1.255608e+00	1.255587e+00	1.255557e+00	1.255523e+00	1.255485e+00	1.255448e+00	1.255413e+00	1.255383e+00	1.255356e+00	1.255336e+00	1.255318e+00	1.255307e+00	1.255294e+00	1.255290e+00	1.255280e+00	1.255283e+00	1.255268e+00	1.255626e+00	1.255619e+00	1.255606e+00	1.255588e+00	1.255562e+00	1.255532e+00	1.255500e+00	1.255469e+00	1.255440e+00	1.255416e+00	1.255395e+00	1.255379e+00	1.255364e+00	1.255357e+00	1.255345e+00	1.255345e+00	1.255333e+00	1.255340e+00	1.255322e+00	1.255621e+00	1.255616e+00	1.255606e+00	1.255591e+00	1.255571e+00	1.255547e+00	1.255521e+00	1.255496e+00	1.255473e+00	1.255454e+00	1.255436e+00	1.255424e+00	1.255411e+00	1.255406e+00	1.255395e+00	1.255397e+00	1.255384e+00	1.255396e+00	1.255373e+00	1.255616e+00	1.255612e+00	1.255605e+00	1.255594e+00	1.255579e+00	1.255562e+00	1.255543e+00	1.255526e+00	1.255508e+00	1.255495e+00	1.255482e+00	1.255474e+00	1.255464e+00	1.255462e+00	1.255452e+00	1.255457e+00	1.255442e+00	1.255458e+00	1.255430e+00	1.255611e+00	1.255609e+00	1.255605e+00	1.255599e+00	1.255590e+00	1.255580e+00	1.255568e+00	1.255557e+00	1.255546e+00	1.255537e+00	1.255528e+00	1.255524e+00	1.255516e+00	1.255517e+00	1.255506e+00	1.255515e+00	1.255498e+00	1.255519e+00	1.255485e+00	1.255606e+00	1.255605e+00	1.255604