# vtk DataFile Version 3.0
vtk output
ASCII
DATASET UNSTRUCTURED_GRID
POINTS 2720 double
-2.181896e-03	2.500205e-01	-1.000000e-01	-2.216329e-03	2.539661e-01	-1.000000e-01	-2.181896e-03	2.500205e-01	-7.764540e-02	-2.216329e-03	2.539661e-01	-7.764540e-02	-2.181896e-03	2.500205e-01	-6.010200e-02	-2.216329e-03	2.539661e-01	-6.010200e-02	-2.181896e-03	2.500205e-01	-4.636143e-02	-2.216329e-03	2.539661e-01	-4.636143e-02	-2.181896e-03	2.500205e-01	-3.562254e-02	-2.216329e-03	2.539661e-01	-3.562254e-02	-2.181896e-03	2.500205e-01	-2.724950e-02	-2.216329e-03	2.539661e-01	-2.724950e-02	-2.181896e-03	2.500205e-01	-2.073818e-02	-2.216329e-03	2.539661e-01	-2.073818e-02	-2.181896e-03	2.500205e-01	-1.568936e-02	-2.216329e-03	2.539661e-01	-1.568936e-02	-2.181896e-03	2.500205e-01	-1.178728e-02	-2.216329e-03	2.539661e-01	-1.178728e-02	-2.181896e-03	2.500205e-01	-8.782491e-03	-2.216329e-03	2.539661e-01	-8.782491e-03	-2.181896e-03	2.500205e-01	-6.478240e-03	-2.216329e-03	2.539661e-01	-6.478240e-03	-2.181896e-03	2.500205e-01	-4.719558e-03	-2.216329e-03	2.539661e-01	-4.719558e-03	-2.181896e-03	2.500205e-01	-3.384591e-03	-2.216329e-03	2.539661e-01	-3.384591e-03	-2.181896e-03	2.500205e-01	-2.377695e-03	-2.216329e-03	2.539661e-01	-2.377695e-03	-2.181896e-03	2.500205e-01	-1.623947e-03	-2.216329e-03	2.539661e-01	-1.623947e-03	-2.181896e-03	2.500205e-01	-1.064777e-03	-2.216329e-03	2.539661e-01	-1.064777e-03	-2.181896e-03	2.500205e-01	-6.545105e-04	-2.216329e-03	2.539661e-01	-6.545105e-04	-2.181896e-03	2.500205e-01	-3.576203e-04	-2.216329e-03	2.539661e-01	-3.576203e-04	-2.181896e-03	2.500205e-01	-1.465511e-04	-2.216329e-03	2.539661e-01	-1.465511e-04	-2.181896e-03	2.500205e-01	0.000000e+00	-2.216329e-03	2.539661e-01	0.000000e+00	-2.250762e-03	2.579118e-01	-1.000000e-01	-2.250762e-03	2.579118e-01	-7.764540e-02	-2.250762e-03	2.579118e-01	-6.010200e-02	-2.250762e-03	2.579118e-01	-4.636143e-02	-2.250762e-03	2.579118e-01	-3.562254e-02	-2.250762e-03	2.579118e-01	-2.724950e-02	-2.250762e-03	2.579118e-01	-2.073818e-02	-2.250762e-03	2.579118e-01	-1.568936e-02	-2.250762e-03	2.579118e-01	-1.178728e-02	-2.250762e-03	2.579118e-01	-8.782491e-03	-2.250762e-03	2.579118e-01	-6.478240e-03	-2.250762e-03	2.579118e-01	-4.719558e-03	-2.250762e-03	2.579118e-01	-3.384591e-03	-2.250762e-03	2.579118e-01	-2.377695e-03	-2.250762e-03	2.579118e-01	-1.623947e-03	-2.250762e-03	2.579118e-01	-1.064777e-03	-2.250762e-03	2.579118e-01	-6.545105e-04	-2.250762e-03	2.579118e-01	-3.576203e-04	-2.250762e-03	2.579118e-01	-1.465511e-04	-2.250762e-03	2.579118e-01	0.000000e+00	-2.285195e-03	2.618574e-01	-1.000000e-01	-2.285195e-03	2.618574e-01	-7.764540e-02	-2.285195e-03	2.618574e-01	-6.010200e-02	-2.285195e-03	2.618574e-01	-4.636143e-02	-2.285195e-03	2.618574e-01	-3.562254e-02	-2.285195e-03	2.618574e-01	-2.724950e-02	-2.285195e-03	2.618574e-01	-2.073818e-02	-2.285195e-03	2.618574e-01	-1.568936e-02	-2.285195e-03	2.618574e-01	-1.178728e-02	-2.285195e-03	2.618574e-01	-8.782491e-03	-2.285195e-03	2.618574e-01	-6.478240e-03	-2.285195e-03	2.618574e-01	-4.719558e-03	-2.285195e-03	2.618574e-01	-3.384591e-03	-2.285195e-03	2.618574e-01	-2.377695e-03	-2.285195e-03	2.618574e-01	-1.623947e-03	-2.285195e-03	2.618574e-01	-1.064777e-03	-2.285195e-03	2.618574e-01	-6.545105e-04	-2.285195e-03	2.618574e-01	-3.576203e-04	-2.285195e-03	2.618574e-01	-1.465511e-04	-2.285195e-03	2.618574e-01	0.000000e+00	-2.319628e-03	2.658030e-01	-1.000000e-01	-2.319628e-03	2.658030e-01	-7.764540e-02	-2.319628e-03	2.658030e-01	-6.010200e-02	-2.319628e-03	2.658030e-01	-4.636143e-02	-2.319628e-03	2.658030e-01	-3.562254e-02	-2.319628e-03	2.658030e-01	-2.724950e-02	-2.319628e-03	2.658030e-01	-2.073818e-02	-2.319628e-03	2.658030e-01	-1.568936e-02	-2.319628e-03	2.658030e-01	-1.178728e-02	-2.319628e-03	2.658030e-01	-8.782491e-03	-2.319628e-03	2.658030e-01	-6.478240e-03	-2.319628e-03	2.658030e-01	-4.719558e-03	-2.319628e-03	2.658030e-01	-3.384591e-03	-2.319628e-03	2.658030e-01	-2.377695e-03	-2.319628e-03	2.658030e-01	-1.623947e-03	-2.319628e-03	2.658030e-01	-1.064777e-03	-2.319628e-03	2.658030e-01	-6.545105e-04	-2.319628e-03	2.658030e-01	-3.576203e-04	-2.319628e-03	2.658030e-01	-1.465511e-04	-2.319628e-03	2.658030e-01	0.000000e+00	-2.354061e-03	2.697487e-01	-1.000000e-01	-2.354061e-03	2.697487e-01	-7.764540e-02	-2.354061e-03	2.697487e-01	-6.010200e-02	-2.354061e-03	2.697487e-01	-4.636143e-02	-2.354061e-03	2.697487e-01	-3.562254e-02	-2.354061e-03	2.697487e-01	-2.724950e-02	-2.354061e-03	2.697487e-01	-2.073818e-02	-2.354061e-03	2.697487e-01	-1.568936e-02	-2.354061e-03	2.697487e-01	-1.178728e-02	-2.354061e-03	2.697487e-01	-8.782491e-03	-2.354061e-03	2.697487e-01	-6.478240e-03	-2.354061e-03	2.697487e-01	-4.719558e-03	-2.354061e-03	2.697487e-01	-3.384591e-03	-2.354061e-03	2.697487e-01	-2.377695e-03	-2.354061e-03	2.697487e-01	-1.623947e-03	-2.354061e-03	2.697487e-01	-1.064777e-03	-2.354061e-03	2.697487e-01	-6.545105e-04	-2.354061e-03	2.697487e-01	-3.576203e-04	-2.354061e-03	2.697487e-01	-1.465511e-04	-2.354061e-03	2.697487e-01	0.000000e+00	-2.388494e-03	2.736943e-01	-1.000000e-01	-2.388494e-03	2.736943e-01	-7.764540e-02	-2.388494e-03	2.736943e-01	-6.010200e-02	-2.388494e-03	2.736943e-01	-4.636143e-02	-2.388494e-03	2.736943e-01	-3.562254e-02	-2.388494e-03	2.736943e-01	-2.724950e-02	-2.388494e-03	2.736943e-01	-2.073818e-02	-2.388494e-03	2.736943e-01	-1.568936e-02	-2.388494e-03	2.736943e-01	-1.178728e-02	-2.388494e-03	2.736943e-01	-8.782491e-03	-2.388494e-03	2.736943e-01	-6.478240e-03	-2.388494e-03	2.736943e-01	-4.719558e-03	-2.388494e-03	2.736943e-01	-3.384591e-03	-2.388494e-03	2.736943e-01	-2.377695e-03	-2.388494e-03	2.736943e-01	-1.623947e-03	-2.388494e-03	2.736943e-01	-1.064777e-03	-2.388494e-03	2.736943e-01	-6.545105e-04	-2.388494e-03	2.736943e-01	-3.576203e-04	-2.388494e-03	2.736943e-01	-1.465511e-04	-2.388494e-03	2.736943e-01	0.000000e+00	-2.422927e-03	2.776399e-01	-1.000000e-01	-2.422927e-03	2.776399e-01	-7.764540e-02	-2.422927e-03	2.776399e-01	-6.010200e-02	-2.422927e-03	2.776399e-01	-4.636143e-02	-2.422927e-03	2.776399e-01	-3.562254e-02	-2.422927e-03	2.776399e-01	-2.724950e-02	-2.422927e-03	2.776399e-01	-2.073818e-02	-2.422927e-03	2.776399e-01	-1.568936e-02	-2.422927e-03	2.776399e-01	-1.178728e-02	-2.422927e-03	2.776399e-01	-8.782491e-03	-2.422927e-03	2.776399e-01	-6.478240e-03	-2.422927e-03	2.776399e-01	-4.719558e-03	-2.422927e-03	2.776399e-01	-3.384591e-03	-2.422927e-03	2.776399e-01	-2.377695e-03	-2.422927e-03	2.776399e-01	-1.623947e-03	-2.422927e-03	2.776399e-01	-1.064777e-03	-2.422927e-03	2.776399e-01	-6.545105e-04	-2.422927e-03	2.776399e-01	-3.576203e-04	-2.422927e-03	2.776399e-01	-1.465511e-04	-2.422927e-03	2.776399e-01	0.000000e+00	-2.457360e-03	2.815856e-01	-1.000000e-01	-2.457360e-03	2.815856e-01	-7.764540e-02	-2.457360e-03	2.815856e-01	-6.010200e-02	-2.457360e-03	2.815856e-01	-4.636143e-02	-2.457360e-03	2.815856e-01	-3.562254e-02	-2.457360e-03	2.815856e-01	-2.724950e-02	-2.457360e-03	2.815856e-01	-2.073818e-02	-2.457360e-03	2.815856e-01	-1.568936e-02	-2.457360e-03	2.815856e-01	-1.178728e-02	-2.457360e-03	2.815856e-01	-8.782491e-03	-2.457360e-03	2.815856e-01	-6.478240e-03	-2.457360e-03	2.815856e-01	-4.719558e-03	-2.457360e-03	2.815856e-01	-3.384591e-03	-2.457360e-03	2.815856e-01	-2.377695e-03	-2.457360e-03	2.815856e-01	-1.623947e-03	-2.457360e-03	2.815856e-01	-1.064777e-03	-2.457360e-03	2.815856e-01	-6.545105e-04	-2.457360e-03	2.815856e-01	-3.576203e-04	-2.457360e-03	2.815856e-01	-1.465511e-04	-2.457360e-03	2.815856e-01	0.000000e+00	-2.491793e-03	2.855312e-01	-1.000000e-01	-2.491793e-03	2.855312e-01	-7.764540e-02	-2.491793e-03	2.855312e-01	-6.010200e-02	-2.491793e-03	2.855312e-01	-4.636143e-02	-2.491793e-03	2.855312e-01	-3.562254e-02	-2.491793e-03	2.855312e-01	-2.724950e-02	-2.491793e-03	2.855312e-01	-2.073818e-02	-2.491793e-03	2.855312e-01	-1.568936e-02	-2.491793e-03	2.855312e-01	-1.178728e-02	-2.491793e-03	2.855312e-01	-8.782491e-03	-2.491793e-03	2.855312e-01	-6.478240e-03	-2.491793e-03	2.855312e-01	-4.719558e-03	-2.491793e-03	2.855312e-01	-3.384591e-03	-2.491793e-03	2.855312e-01	-2.377695e-03	-2.491793e-03	2.855312e-01	-1.623947e-03	-2.491793e-03	2.855312e-01	-1.064777e-03	-2.491793e-03	2.855312e-01	-6.545105e-04	-2.491793e-03	2.855312e-01	-3.576203e-04	-2.491793e-03	2.855312e-01	-1.465511e-04	-2.491793e-03	2.855312e-01	0.000000e+00	-2.526226e-03	2.894769e-01	-1.000000e-01	-2.526226e-03	2.894769e-01	-7.764540e-02	-2.526226e-03	2.894769e-01	-6.010200e-02	-2.526226e-03	2.894769e-01	-4.636143e-02	-2.526226e-03	2.894769e-01	-3.562254e-02	-2.526226e-03	2.894769e-01	-2.724950e-02	-2.526226e-03	2.894769e-01	-2.073818e-02	-2.526226e-03	2.894769e-01	-1.568936e-02	-2.526226e-03	2.894769e-01	-1.178728e-02	-2.526226e-03	2.894769e-01	-8.782491e-03	-2.526226e-03	2.894769e-01	-6.478240e-03	-2.526226e-03	2.894769e-01	-4.719558e-03	-2.526226e-03	2.894769e-01	-3.384591e-03	-2.526226e-03	2.894769e-01	-2.377695e-03	-2.526226e-03	2.894769e-01	-1.623947e-03	-2.526226e-03	2.894769e-01	-1.064777e-03	-2.526226e-03	2.894769e-01	-6.545105e-04	-2.526226e-03	2.894769e-01	-3.576203e-04	-2.526226e-03	2.894769e-01	-1.465511e-04	-2.526226e-03	2.894769e-01	0.000000e+00	-2.560659e-03	2.934225e-01	-1.000000e-01	-2.560659e-03	2.934225e-01	-7.764540e-02	-2.560659e-03	2.934225e-01	-6.010200e-02	-2.560659e-03	2.934225e-01	-4.636143e-02	-2.560659e-03	2.934225e-01	-3.562254e-02	-2.560659e-03	2.934225e-01	-2.724950e-02	-2.560659e-03	2.934225e-01	-2.073818e-02	-2.560659e-03	2.934225e-01	-1.568936e-02	-2.560659e-03	2.934225e-01	-1.178728e-02	-2.560659e-03	2.934225e-01	-8.782491e-03	-2.560659e-03	2.934225e-01	-6.478240e-03	-2.560659e-03	2.934225e-01	-4.719558e-03	-2.560659e-03	2.934225e-01	-3.384591e-03	-2.560659e-03	2.934225e-01	-2.377695e-03	-2.560659e-03	2.934225e-01	-1.623947e-03	-2.560659e-03	2.934225e-01	-1.064777e-03	-2.560659e-03	2.934225e-01	-6.545105e-04	-2.560659e-03	2.934225e-01	-3.576203e-04	-2.560659e-03	2.934225e-01	-1.465511e-04	-2.560659e-03	2.934225e-01	0.000000e+00	-2.595092e-03	2.973681e-01	-1.000000e-01	-2.595092e-03	2.973681e-01	-7.764540e-02	-
[...]
POINT_DATA 2720

SCALARS Density double 1
LOOKUP_TABLE default
1.236254e+00	1.236254e+00	1.236251e+00	1.236251e+00	1.236262e+00	1.236262e+00	1.236271e+00	1.236271e+00	1.236293e+00	1.236293e+00	1.236307e+00	1.236308e+00	1.236339e+00	1.236340e+00	1.236351e+00	1.236352e+00	1.236389e+00	1.236391e+00	1.236393e+00	1.236393e+00	1.236434e+00	1.236438e+00	1.236425e+00	1.236423e+00	1.236471e+00	1.236476e+00	1.236446e+00	1.236439e+00	1.236500e+00	1.236507e+00	1.236455e+00	1.236442e+00	1.236526e+00	1.236534e+00	1.236451e+00	1.236434e+00	1.236553e+00	1.236560e+00	1.236398e+00	1.236392e+00	1.236254e+00	1.236251e+00	1.236262e+00	1.236270e+00	1.236290e+00	1.236303e+00	1.236334e+00	1.236344e+00	1.236380e+00	1.236378e+00	1.236420e+00	1.236402e+00	1.236452e+00	1.236412e+00	1.236478e+00	1.236412e+00	1.236500e+00	1.236403e+00	1.236523e+00	1.236364e+00	1.236253e+00	1.236250e+00	1.236261e+00	1.236268e+00	1.236288e+00	1.236300e+00	1.236328e+00	1.236336e+00	1.236370e+00	1.236367e+00	1.236406e+00	1.236386e+00	1.236433e+00	1.236394e+00	1.236455e+00	1.236393e+00	1.236474e+00	1.236384e+00	1.236494e+00	1.236347e+00	1.236252e+00	1.236250e+00	1.236259e+00	1.236265e+00	1.236283e+00	1.236292e+00	1.236318e+00	1.236323e+00	1.236353e+00	1.236347e+00	1.236382e+00	1.236362e+00	1.236404e+00	1.236367e+00	1.236422e+00	1.236364e+00	1.236439e+00	1.236355e+00	1.236456e+00	1.236320e+00	1.236251e+00	1.236249e+00	1.236257e+00	1.236262e+00	1.236278e+00	1.236286e+00	1.236308e+00	1.236311e+00	1.236337e+00	1.236330e+00	1.236361e+00	1.236341e+00	1.236378e+00	1.236343e+00	1.236393e+00	1.236340e+00	1.236407e+00	1.236331e+00	1.236422e+00	1.236298e+00	1.236250e+00	1.236248e+00	1.236255e+00	1.236258e+00	1.236272e+00	1.236277e+00	1.236295e+00	1.236296e+00	1.236318e+00	1.236309e+00	1.236335e+00	1.236316e+00	1.236349e+00	1.236317e+00	1.236361e+00	1.236313e+00	1.236373e+00	1.236304e+00	1.236386e+00	1.236273e+00	1.236249e+00	1.236247e+00	1.236253e+00	1.236255e+00	1.236266e+00	1.236268e+00	1.236283e+00	1.236281e+00	1.236299e+00	1.236290e+00	1.236312e+00	1.236293e+00	1.236322e+00	1.236293e+00	1.236331e+00	1.236288e+00	1.236341e+00	1.236280e+00	1.236353e+00	1.236251e+00	1.236248e+00	1.236246e+00	1.236250e+00	1.236250e+00	1.236258e+00	1.236258e+00	1.236269e+00	1.236265e+00	1.236279e+00	1.236269e+00	1.236287e+00	1.236270e+00	1.236294e+00	1.236267e+00	1.236301e+00	1.236262e+00	1.236309e+00	1.236255e+00	1.236319e+00	1.236228e+00	1.236246e+00	1.236245e+00	1.236248e+00	1.236246e+00	1.236252e+00	1.236249e+00	1.236256e+00	1.236250e+00	1.236261e+00	1.236250e+00	1.236264e+00	1.236247e+00	1.236268e+00	1.236244e+00	1.236273e+00	1.236239e+00	1.236279e+00	1.236232e+00	1.236287e+00	1.236207e+00	1.236245e+00	1.236244e+00	1.236245e+00	1.236242e+00	1.236244e+00	1.236239e+00	1.236243e+00	1.236234e+00	1.236241e+00	1.236229e+00	1.236241e+00	1.236225e+00	1.236242e+00	1.236220e+00	1.236245e+00	1.236214e+00	1.236249e+00	1.236208e+00	1.236255e+00	1.236185e+00	1.236244e+00	1.236242e+00	1.236243e+00	1.236238e+00	1.236238e+00	1.236230e+00	1.236230e+00	1.236220e+00	1.236223e+00	1.236211e+00	1.236219e+00	1.236204e+00	1.236217e+00	1.236198e+00	1.236218e+00	1.236192e+00	1.236221e+00	1.236186e+00	1.236226e+00	1.236164e+00	1.236242e+00	1.236241e+00	1.236240e+00	1.236234e+00	1.236231e+00	1.236220e+00	1.236218e+00	1.236205e+00	1.236205e+00	1.236192e+00	1.236197e+00	1.236182e+00	1.236193e+00	1.236175e+00	1.236192e+00	1.236169e+00	1.236193e+00	1.236163e+00	1.236197e+00	1.236143e+00	1.236241e+00	1.236240e+00	1.236238e+00	1.236230e+00	1.236225e+00	1.236212e+00	1.236207e+00	1.236192e+00	1.236190e+00	1.236175e+00	1.236177e+00	1.236163e+00	1.236170e+00	1.236154e+00	1.236167e+00	1.236148e+00	1.236167e+00	1.236142e+00	1.236170e+00	1.236123e+00	1.236240e+00	1.236240e+00	1.236236e+00	1.236227e+00	1.236219e+00	1.236205e+00	1.236196e+00	1.236180e+00	1.236174e+00	1.236158e+00	1.236157e+00	1.236143e+00	1.236148e+00	1.236133e+00	1.236143e+00	1.236126e+00	1.236142e+00	1.236120e+00	1.236143e+00	1.236102e+00	1.236239e+00	1.236239e+00	1.236234e+00	1.236224e+00	1.236215e+00	1.236199e+00	1.236188e+00	1.236170e+00	1.236161e+00	1.236145e+00	1.236141e+00	1.236127e+00	1.236129e+00	1.236115e+00	1.236122e+00	1.236107e+00	1.236119e+00	1.236101e+00	1.236119e+00	1.236084e+00	1.236239e+00	1.236238e+00	1.236233e+00	1.236222e+00	1.236211e+00	1.236193e+00	1.236180e+00	1.236160e+00	1.236148e+00	1.236131e+00	1.236124e+00	1.236109e+00	1.236109e+00	1.236095e+00	1.236100e+00	1.236086e+00	1.236096e+00	1.236080e+00	1.236095e+00	1.236063e+00	1.236238e+00	1.236238e+00	1.236232e+00	1.236220e+00	1.236209e+00	1.236190e+00	1.236175e+00	1.236154e+00	1.236141e+00	1.236123e+00	1.236114e+00	1.236099e+00	1.236096e+00	1.236083e+00	1.236085e+00	1.236072e+00	1.236079e+00	1.236065e+00	1.236078e+00	1.236049e+00	1.236238e+00	1.236237e+00	1.236231e+00	1.236219e+00	1.236207e+00	1.236187e+00	1.236170e+00	1.236148e+00	1.236133e+00	1.236113e+00	1.236102e+00	1.236086e+00	1.236080e+00	1.236067e+00	1.236066e+00	1.236054e+00	1.236059e+00	1.236046e+00	1.236056e+00	1.236029e+00	1.236238e+00	1.236238e+00	1.236231e+00	1.236219e+00	1.236207e+00	1.236187e+00	1.236171e+00	1.236149e+00	1.236134e+00	1.236115e+00	1.236103e+00	1.236087e+00	1.236081e+00	1.236068e+00	1.236066e+00	1.236056e+00	1.236057e+00	1.236048e+00	1.236053e+00	1.236027e+00	1.236446e+00	1.236440e+00	1.235901e+00	1.235905e+00	1.235866e+00	1.235888e+00	1.235247e+00	1.235230e+00	1.234748e+00	1.234758e+00	1.233787e+00	1.233799e+00	1.233308e+00	1.233311e+00	1.232128e+00	1.232133e+00	1.231452e+00	1.231462e+00	1.230526e+00	1.230534e+00	1.229984e+00	1.229993e+00	1.229457e+00	1.229452e+00	1.228974e+00	1.228977e+00	1.228791e+00	1.228792e+00	1.228762e+00	1.228761e+00	1.229002e+00	1.228997e+00	1.229408e+00	1.229410e+00	1.229979e+00	1.229965e+00	1.230643e+00	1.230640e+00	1.231267e+00	1.231262e+00	1.232345e+00	1.232342e+00	1.233000e+00	1.232993e+00	1.234119e+00	1.234106e+00	1.234496e+00	1.234479e+00	1.235393e+00	1.235404e+00	1.235731e+00	1.235701e+00	1.236154e+00	1.236145e+00	1.236171e+00	1.236170e+00	1.236604e+00	1.236594e+00	1.236405e+00	1.235893e+00	1.235854e+00	1.235213e+00	1.234733e+00	1.233796e+00	1.233296e+00	1.232147e+00	1.231474e+00	1.230560e+00	1.230023e+00	1.229477e+00	1.229019e+00	1.228831e+00	1.228808e+00	1.229037e+00	1.229452e+00	1.229999e+00	1.230673e+00	1.231300e+00	1.232356e+00	1.233016e+00	1.234099e+00	1.234484e+00	1.235390e+00	1.235691e+00	1.236126e+00	1.236163e+00	1.236564e+00	1.236379e+00	1.235891e+00	1.235830e+00	1.235208e+00	1.234722e+00	1.233804e+00	1.233296e+00	1.232171e+00	1.231494e+00	1.230594e+00	1.230054e+00	1.229507e+00	1.229058e+00	1.228867e+00	1.228847e+00	1.229070e+00	1.229482e+00	1.230022e+00	1.230693e+00	1.231323e+00	1.232357e+00	1.233023e+00	1.234079e+00	1.234479e+00	1.235364e+00	1.235674e+00	1.236098e+00	1.236149e+00	1.236527e+00	1.236344e+00	1.235879e+00	1.235797e+00	1.235195e+00	1.234701e+00	1.233806e+00	1.233290e+00	1.232194e+00	1.231515e+00	1.230634e+00	1.230093e+00	1.229550e+00	1.229114e+00	1.228923e+00	1.228906e+00	1.229125e+00	1.229533e+00	1.230067e+00	1.230732e+00	1.231364e+00	1.232372e+00	1.233044e+00	1.234069e+00	1.234482e+00	1.235343e+00	1.235663e+00	1.236072e+00	1.236139e+00	1.236491e+00	1.236313e+00	1.235873e+00	1.235768e+00	1.235188e+00	1.234686e+00	1.233813e+00	1.233289e+00	1.232223e+00	1.231541e+00	1.230679e+00	1.230135e+00	1.229596e+00	1.229169e+00	1.228977e+00	1.228963e+00	1.229176e+00	1.229578e+00	1.230106e+00	1.230765e+00	1.231397e+00	1.232380e+00	1.233057e+00	1.234053e+00	1.234479e+00	1.235316e+00	1.235647e+00	1.236040e+00	1.236124e+00	1.236451e+00	1.236280e+00	1.235862e+00	1.235736e+00	1.235178e+00	1.234668e+00	1.233818e+00	1.233287e+00	1.232251e+00	1.231567e+00	1.230725e+00	1.230181e+00	1.229647e+00	1.229231e+00	1.229040e+00	1.229028e+00	1.229237e+00	1.229634e+00	1.230155e+00	1.230806e+00	1.231440e+00	1.232396e+00	1.233078e+00	1.234042e+00	1.234481e+00	1.235293e+00	1.235635e+00	1.236013e+00	1.236113e+00	1.236415e+00	1.236249e+00	1.235854e+00	1.235708e+00	1.235171e+00	1.234654e+00	1.233826e+00	1.233288e+00	1.232281e+00	1.231595e+00	1.230773e+00	1.230227e+00	1.229700e+00	1.229293e+00	1.229103e+00	1.229092e+00	1.229296e+00	1.229687e+00	1.230201e+00	1.230844e+00	1.231478e+00	1.232408e+00	1.233094e+00	1.234030e+00	1.234480e+00	1.235269e+00	1.235620e+00	1.235983e+00	1.236098e+00	1.236378e+00	1.236218e+00	1.235844e+00	1.235679e+00	1.235162e+00	1.234639e+00	1.233833e+00	1.233289e+00	1.232311e+00	1.231623e+00	1.230822e+00	1.230274e+00	1.229754e+00	1.229357e+00	1.229168e+00	1.229160e+00	1.229359e+00	1.229744e+00	1.230251e+00	1.230887e+00	1.231520e+00	1.232425e+00	1.233115e+00	1.234021e+00	1.234483e+00	1.235248e+00	1.235609e+00	1.235956e+00	1.236086e+00	1.236343e+00	1.236189e+00	1.235835e+00	1.235653e+00	1.235155e+00	1.234626e+00	1.233841e+00	1.233292e+00	1.232340e+00	1.231651e+00	1.230870e+00	1.230321e+00	1.229807e+00	1.229420e+00	1.229231e+00	1.229225e+00	1.229420e+00	1.229798e+00	1.230298e+00	1.230926e+00	1.231559e+00	1.232439e+00	1.233132e+00	1.234011e+00	1.234483e+00	1.235227e+00	1.235595e+00	1.235929e+00	1.236073e+00	1.236308e+00	1.236160e+00	1.235825e+00	1.235626e+00	1.235148e+00	1.234613e+00	1.233848e+00	1.233295e+00	1.232369e+00	1.231680e+00	1.230917e+00	1.230368e+00	1.229860e+00	1.229482e+00	1.229295e+00	1.229290e+00	1.229481e+00	1.229854e+00	1.230347e+00	1.230967e+00	1.231600e+00	1.232456e+00	1.233152e+00	1.234004e+00	1.234485e+00	1.235208e+00	1.235584e+00	1.235904e+00	1.236060e+00	1.236276e+00	1.236133e+00	1.235816e+00	1.235602e+00	1.235141e+00	1.234601e+00	1.233855e+00	1.233298e+00	1.232397e+00	1.231707e+00	1.230962e+00	1.230413e+00	1.229911e+00	1.229542e+00	1.229355e+00	1.229352e+00	1.229539e+00	1.229907e+00	1.230392e+00	1.231005e+00	1.231637e+00	1.232470e+00	1.233168e+00	1.233996e+00	1.234485e+00	1.235188e+00	1.235571e+00	1.235878e+00	1.236047e+00	1.236244e+00	1.236106e+00	1.235805e+00	1.235578e+00	1.235133e+00	1.234589e+00	1.233861e+00	1.233301e+00	1.232423e+00	1.231734e+00	1.231005e+00	1.230457e+00	1.229961e+00	1.229601e+00	1.229414e+00	1.229413e+00	1.229596e+00	1.229959e+00	1.230437e+00	1.231043e+00	1.231674e+00	1.232487e+00	1.233186e+00	1.233991e+00	1.234486e+00	1.235171e+00	1.235560e+00	1.235855e+00	1.236034e+00	1.236214e+00	1.236080e+00	1.235795e+00	1.235556e+00	1.235125e+00	1.234579e+00	1.233867e+00	1.233305e+00	1.232447e+00	1.231759e+00	1.231045e+00	1.230497e+00	1.230006e+00	1.229655e+00	1.229468e+00	1.229468e+00	1.229647e+00	1.230006e+00	1.230477e+00	1.231077e+00	1.231706e+00	1.232499e+00	1.233199e+00	1.233984e+00	1.234484e+00	1.235153e+00	1.235546e+00	1.235831e+00	1.236019e+00	1.236184e+00	1.236055e+00	1.235783e+00	1.235534e+00	1.235116e+00	1.234568e+00	1.233871e+00	1.233308e+00	1.232469e+00	1.231782e+00	1.231083e+00	1.230535e+00	1.230050e+00	1.229707e+00	1.229520e+00	1.229523e+00	1.229698e+00	1.230053e+00	1.230517e+00	1.231111e+00	1.231739e+00	1.232515e+00	1.233214e+00	1.233980e+00	1.234484e+00	1.235138e+00	1.235535e+00	1.235810e+00	1.236006e+00	1.236158e+00	1.236033e+00	1.235772e+00	1.235515e+00	1.235109e+00	1.234560e+00	1.233875e+00	1.233311e+00	1.232488e+00	1.231803e+00	1.231116e+00	1.230568e+00	1.230088e+00	1.229751e+00	1.229563e+00	1.229567e+00	1.229739e+00	1.230091e+00	1.230548e+00	1.231138e+00	1.231763e+00	1.232524e+00	1.233223e+00	1.233973e+00	1.234480e+00	1.235121e+00	1.235521e+00	1.235788e+00	1.235990e+00	1.236131e+00	1.236010e+00	1.235757e+00	1.235495e+00	1.235098e+00	1.234549e+00	1.233876e+00	1.233312e+00	1.232503e+00	1.231821e+00	1.231144e+00	1.230598e+00	1.230123e+00	1.229793e+00	1.229605e+00	1.229611e+00	1.229781e+00	1.230130e+00	1.230582e+00	1.231166e+00	1.231790e+00	1.232538e+00	1.233235e+00	1.233971e+00	1.234480e+00	1.235109e+00	1.235510e+00	1.235770e+00	1.235976e+00	1.236108e+00	1.235994e+00	1.235748e+00	1.235482e+00	1.235092e+00	1.234545e+00	1.233879e+00	1.233316e+00	1.232517e+00	1.231835e+00	1.231166e+00	1.230620e+00	1.230147e+00	1.229820e+00	1.229632e+00	1.229638e+00	1.229806e+00	1.230152e+00	1.230600e+00	1.231182e+00	1.231803e+00	1.232541e+00	1.233237e+00	1.233964e+00	1.234474e+00	1.235094e+00	1.235497e+00	1.235752e+00	1.235961e+00	1.236086e+00	1.235972e+00	1.235732e+00	1.235464e+00	1.235080e+00	1.234535e+00	1.233874e+00	1.233313e+00	1.232522e+00	1.231845e+00	1.231184e+00	1.230639e+00	1.230170e+00	1.229848e+00	1.229662e+00	1.229668e+00	1.229835e+00	1.230181e+00	1.230626e+00	1.231203e+00	1.231822e+00	1.232554e+00	1.233247e+00	1.233967e+00	1.234474e+00	1.235087e+00	1.235489e+00	1.235738e+00	1.235950e+00	1.236070e+00	1.235971e+00	1.235741e+00	1.235453e+00	1.235091e+00	1.234542e+00	1.233872e+00	1.233323e+00	1.232523e+00	1.231843e+00	1.231188e+00	1.230645e+00	1.230174e+00	1.229847e+00	1.229663e+00	1.229668e+00	1.229833e+00	1.230175e+00	1.230624e+00	1.231202e+00	1.231817e+00	1.232541e+00	1.233232e+00	1.233969e+00	1.234469e+00	1.235070e+00	1.235495e+00	1.235726e+00	1.235942e+00	1.236066e+00	1.236464e+00	1.236427e+00	1.236525e+00	1.236528e+00	1.236476e+00	1.236449e+00	1.236501e+00	1.236500e+00	1.236469e+00	1.236453e+00	1.236476e+00	1.236474e+00	1.236450e+00	1.236443e+00	1.236445e+00	1.236445e+00	1.236419e+00	1.236418e+00	1.236406e+00	1.236407e+00	1.236379e+00	1.236380e+00	1.236359e+00	1.236360e+00	1.236333e+00	1.236334e+00	1.236311e+00	1.236312e+00	1.236289e+00	1.236290e+00	1.236272e+00	1.236273e+00	1.236259e+00	1.236260e+00	1.236250e+00	1.236250e+00	1.236244e+00	1.236245e+00	1.236405e+00	1.236504e+00	1.236425e+00	1.236478e+00	1.236430e+00	1.236454e+00	1.236422e+00	1.236427e+00	1.236401e+00	1.236393e+00	1.236368e+00	1.236351e+00	1.236327e+00	1.236307e+00	1.236287e+00	1.236271e+00	1.236259e+00	1.236250e+00	1.236245e+00	1.236379e+00	1.236471e+00	1.236398e+00	1.236449e+00	1.236404e+00	1.236430e+00	1.236400e+00	1.236408e+00	1.236385e+00	1.236380e+00	1.236358e+00	1.236344e+00	1.236322e+00	1.236304e+00	1.236285e+00	1.236270e+00	1.236258e+00	1.236250e+00	1.236245e+00	1.236356e+00	1.236440e+00	1.236373e+00	1.236421e+00	1.236380e+00	1.236404e+00	1.236377e+00	1.236385e+00	1.236365e+00	1.236362e+00	1.236343e+00	1.236331e+00	1.236312e+00	1.236297e+00	1.236280e+00	1.236267e+00	1.236256e+00	1.236249e+00	1.236245e+00	1.236328e+00	1.236405e+00	1.236345e+00	1.236388e+00	1.236352e+00	1.236374e+00	1.236351e+00	1.236360e+00	1.236343e+00	1.236342e+00	1.236327e+00	1.236318e+00	1.236302e+00	1.236290e+00	1.236275e+00	1.236264e+00	1.236255e+00	1.236249e+00	1.236245e+00	1.236304e+00	1.236372e+00	1.236319e+00	1.236358e+00	1.236326e+00	1.236347e+00	1.236326e+00	1.236335e+00	1.236321e+00	1.236321e+00	1.236309e+00	1.236303e+00	1.236290e+00	1.236280e+00	1.236269e+00	1.236260e+00	1.236253e+00	1.236248e+00	1.236245e+00	1.236278e+00	1.236339e+00	1.236292e+00	1.236327e+00	1.236298e+00	1.236318e+00	1.236300e+00	1.236310e+00	1.236298e+00	1.236300e+00	1.236290e+00	1.236287e+00	1.236278e+00	1.236271e+00	1.236263e+00	1.236256e+00	1.236251e+00	1.236247e+00	1.236245e+00	1.236255e+00	1.236308e+00	1.236267e+00	1.236298e+00	1.236273e+00	1.236291e+00	1.236276e+00	1.236285e+00	1.236276e+00	1.236279e+00	1.236272e+00	1.236271e+00	1.236265e+00	1.236261e+00	1.236256e+00	1.236252e+00	1.236248e+00	1.236246e+00	1.236245e+00	1.236230e+00	1.236276e+00	1.236241e+00	1.236268e+00	1.236248e+00	1.236263e+00	1.236251e+00	1.236260e+00	1.236253e+00	1.236258e+00	1.236253e+00	1.236255e+00	1.236252e+00	1.236252e+00	1.236249e+00	1.236248e+00	1.236246e+00	1.236245e+00	1.236245e+00	1.236208e+00	1.236247e+00	1.236218e+00	1.236241e+00	1.236224e+00	1.236238e+00	1.236228e+00	1.236237e+00	1.236232e+00	1.236237e+00	1.236236e+00	1.236239e+00	1.236239e+00	1.236242e+00	1.236242e+00	1.236243e+00	1.236244e+00	1.236244e+00	1.236245e+00	1.236185e+00	1.236218e+00	1.236193e+00	1.236213e+00	1.236199e+00	1.236212e+00	1.236205e+00	1.236213e+00	1.236211e+00	1.236217e+00	1.236218e+00	1.236224e+00	1.236227e+00	1.236232e+00	1.236236e+00	1.236239e+00	1.236242e+00	1.236244e+00	1.236244e+00	1.236164e+00	1.236191e+00	1.236171e+00	1.236188e+00	1.236177e+00	1.236188e+00	1.236183e+00	1.236191e+00	1.236191e+00	1.236198e+00	1.236201e+00	1.236209e+00	1.236215e+00	1.236223e+00	1.236229e+00	1.236235e+00	1.236239e+00	1.236243e+00	1.236244e+00	1.236141e+00	1.236164e+00	1.236148e+00	1.236162e+00	1.236154e+00	1.236164e+00	1.236161e+00	1.236169e+00	1.236171e+00	1.236180e+00	1.236185e+00	1.236195e+00	1.236204e+00	1.236215e+00	1.236223e+00	1.236232e+00	1.236238e+00	1.236242e+00	1.236244e+00	1.236121e+00	1.236140e+00	1.236127e+00	1.236139e+00	1.236133e+00	1.236142e+00	1.236141e+00	1.236150e+00	1.236153e+00	1.236163e+00	1.236171e+00	1.236183e+00	1.236194e+00	1.236207e+00	1.236218e+00	1.236228e+00	1.236236e+00	1.236241e+00	1.236244e+00	1.236099e+00	1.236115e+00	1.236105e+00	1.236116e+00	1.236112e+00	1.236121e+00	1.236122e+00	1.236131e+00	1.236137e+00	1.236148e+00	1.236158e+00	1.236172e+00	1.236186e+00	1.236201e+00	1.236214e+00	1.236226e+00	1.236234e+00	1.236241e+00	1.236244e+00	1.236081e+00	1.236094e+00	1.236087e+00	1.236096e+00	1.236094e+00	1.236102e+00	1.236105e+00	1.236115e+00	1.236122e+00	1.236134e+00	1.236146e+00	1.236162e+00	1.236178e+00	1.236195e+00	1.236210e+00	1.236223e+00	1.236233e+00	1.236240e+00	1.236244e+00	1.236063e+00	1.236074e+00	1.236069e+00	1.236078e+00	1.236078e+00	1.236087e+00	1.236091e+00	1.236102e+00	1.236111e+00	1.236126e+00	1.236139e+00	1.236157e+00	1.236174e+00	1.236192e+00	1.236208e+00	1.236222e+00	1.236232e+00	1.236240e+00	1.236244e+00	1.236049e+00	1.236058e+00	1.236055e+00	1.236062e+00	1.236064e+00	1.236072e+00	1.236078e+00	1.236089e+00	1.236100e+00	1.236115e+00	1.236131e+00	1.236150e+00	1.236168e+00	1.236188e+00	1.236205e+00	1.236220e+00	1.236231e+00	1.236240e+00	1.236244e+00	1.236045e+00	1.236049e+00	1.236051e+00	1.236057e+00	1.236061e+00	1.236069e+00	1.236077e+00	1.236089e+00	1.236101e+00	1.236116e+00	1.236132e+00	1.236151e+00	1.236169e+00	1.236189e+00	1.236206e+00	1.236221e+00	1.236232e+00	1.236240e+00	1.236245e+00	1.236245e+00	1.236240e+00	1.236232e+00	1.236221e+00	1.236206e+00	1.236189e+00	1.236169e+00	1.236151e+00	1.236132e+00	1.236116e+00	1.236101e+00	1.236089e+00	1.236077e+00	1.236069e+00	1.236061e+00	1.236057e+00	1.236051e+00	1.236049e+00	1.236045e+00	1.236244e+00	1.236240e+00	1.236231e+00	1.236220e+00	1.236205e+00	1.236188e+00	1.236168e+00	1.236150e+00	1.236131e+00	1.236115e+00	1.236100e+00	1.236089e+00	1.236078e+00	1.236072e+00	1.236064e+00	1.236062e+00	1.236055e+00	1.236058e+00	1.236049e+00	1.236244e+00	1.236240e+00	1.236232e+00	1.236222e+00	1.236208e+00	1.236192e+00	1.236174e+00	1.236157e+00	1.236139e+00	1.236126e+00	1.236111e+00	1.236102e+00	1.236091e+00	1.236087e+00	1.236078e+00	1.236078e+00	1.236069e+00	1.236074e+00	1.236063e+00	1.236244e+00	1.236240e+00	1.236233e+00	1.236223e+00	1.236210e+00	1.236195e+00	1.236178e+00	1.236162e+00	1.236146e+00	1.236134e+00	1.236122e+00	1.236115e+00	1.236105e+00	1.236102e+00	1.236094e+00	1.236096e+00	1.236087e+00	1.236094e+00	1.236081e+00	1.236244e+00	1.236241e+00	1.236234e+00	1.236226e+00	1.236214e+00	1.236201e+00	1.236186e+00	1.236172e+00	1.236158e+00	1.236148e+00	1.236137e+00	1.236131e+00	1.236122e+00	1.236121e+00	1.236112e+00	1.236116e+00	1.236105e+00	1.236115e+00	1.236099e+00	1.236244e+00	1.236241e+00	1.236236e+00	1.236228e+00	1.236218e+00	1.236207e+00	1.236194e+00	1.236183e+00	1.236171e+00	1.236163e+00	1.236153e+00	1.236150e+00	1.236141e+00	1.236142e+00	1.236133e+00	1.236139e+00	1.236127e+00	1.236140e+00	1.236121e+00	1.236244e+00	1.236242e+00	1.236238e+00	1.236232e+00	1.236223e+00	1.236215e+00	1.236204e+00	1.236195e+00	1.236185e+00	1.236180e+00	1.236171e+00	1.236169e+00	1.236161e+00	1.236164e+00	1.236154e+00	1.236162e+00	1.236148e+00	1.236164e+00	1.236141e+00	1.236244e+00	1.236243e+00	1.236239e+00	1.236235e+00	1.236229e+00	1.236223e+00	1.236215e+00	1.236209e+00	1.236201e+00	1.236198e+00	1.236191e+00	1.236191e+00	1.236183e+00	1.236188e+00	1.236177e+00	1.236188e+00	1.236171e+00	1.236191e+00	1.236164e+00	1.236244e+00	1.236244e+00	1.236242e+00	1.236239e+00	1.236236e+00	1.236232e+00	1.236227e+00	1.236224e+00	1.236218e+00	1.236217e+00	1.236211e+00	1.236213e+00	1.236205e+00	1.236212e+00	1.236199e+00	1.236213e+00	1.236193e+00	1.236218e+00	1.236185e+00	1.236245e+00	1.236244e+00	1.236244