# vtk DataFile Version 3.0
vtk output
ASCII
DATASET UNSTRUCTURED_GRID
POINTS 9120 double
-2.181634e-03	2.499905e-01	-1.000000e-01	-7.272113e-04	2.499905e-01	-1.000000e-01	-7.386936e-04	2.539377e-01	-1.000000e-01	-2.216081e-03	2.539377e-01	-1.000000e-01	-2.181634e-03	2.499905e-01	-8.727541e-02	-7.272113e-04	2.499905e-01	-8.727541e-02	-7.386936e-04	2.539377e-01	-8.727541e-02	-2.216081e-03	2.539377e-01	-8.727541e-02	-2.181634e-03	2.499905e-01	-7.593488e-02	-7.272113e-04	2.499905e-01	-7.593488e-02	-7.386936e-04	2.539377e-01	-7.593488e-02	-2.216081e-03	2.539377e-01	-7.593488e-02	-2.181634e-03	2.499905e-01	-6.583932e-02	-7.272113e-04	2.499905e-01	-6.583932e-02	-7.386936e-04	2.539377e-01	-6.583932e-02	-2.216081e-03	2.539377e-01	-6.583932e-02	-2.181634e-03	2.499905e-01	-5.686298e-02	-7.272113e-04	2.499905e-01	-5.686298e-02	-7.386936e-04	2.539377e-01	-5.686298e-02	-2.216081e-03	2.539377e-01	-5.686298e-02	-2.181634e-03	2.499905e-01	-4.889218e-02	-7.272113e-04	2.499905e-01	-4.889218e-02	-7.386936e-04	2.539377e-01	-4.889218e-02	-2.216081e-03	2.539377e-01	-4.889218e-02	-2.181634e-03	2.499905e-01	-4.182420e-02	-7.272113e-04	2.499905e-01	-4.182420e-02	-7.386936e-04	2.539377e-01	-4.182420e-02	-2.216081e-03	2.539377e-01	-4.182420e-02	-2.181634e-03	2.499905e-01	-3.556629e-02	-7.272113e-04	2.499905e-01	-3.556629e-02	-7.386936e-04	2.539377e-01	-3.556629e-02	-2.216081e-03	2.539377e-01	-3.556629e-02	-2.181634e-03	2.499905e-01	-3.003468e-02	-7.272113e-04	2.499905e-01	-3.003468e-02	-7.386936e-04	2.539377e-01	-3.003468e-02	-2.216081e-03	2.539377e-01	-3.003468e-02	-2.181634e-03	2.499905e-01	-2.515378e-02	-7.272113e-04	2.499905e-01	-2.515378e-02	-7.386936e-04	2.539377e-01	-2.515378e-02	-2.216081e-03	2.539377e-01	-2.515378e-02	-2.181634e-03	2.499905e-01	-2.085541e-02	-7.272113e-04	2.499905e-01	-2.085541e-02	-7.386936e-04	2.539377e-01	-2.085541e-02	-2.216081e-03	2.539377e-01	-2.085541e-02	-2.181634e-03	2.499905e-01	-1.707809e-02	-7.272113e-04	2.499905e-01	-1.707809e-02	-7.386936e-04	2.539377e-01	-1.707809e-02	-2.216081e-03	2.539377e-01	-1.707809e-02	-2.181634e-03	2.499905e-01	-1.376640e-02	-7.272113e-04	2.499905e-01	-1.376640e-02	-7.386936e-04	2.539377e-01	-1.376640e-02	-2.216081e-03	2.539377e-01	-1.376640e-02	-2.181634e-03	2.499905e-01	-1.087042e-02	-7.272113e-04	2.499905e-01	-1.087042e-02	-7.386936e-04	2.539377e-01	-1.087042e-02	-2.216081e-03	2.539377e-01	-1.087042e-02	-2.181634e-03	2.499905e-01	-8.345227e-03	-7.272113e-04	2.499905e-01	-8.345227e-03	-7.386936e-04	2.539377e-01	-8.345227e-03	-2.216081e-03	2.539377e-01	-8.345227e-03	-2.181634e-03	2.499905e-01	-6.150369e-03	-7.272113e-04	2.499905e-01	-6.150369e-03	-7.386936e-04	2.539377e-01	-6.150369e-03	-2.216081e-03	2.539377e-01	-6.150369e-03	-2.181634e-03	2.499905e-01	-4.249476e-03	-7.272113e-04	2.499905e-01	-4.249476e-03	-7.386936e-04	2.539377e-01	-4.249476e-03	-2.216081e-03	2.539377e-01	-4.249476e-03	-2.181634e-03	2.499905e-01	-2.609859e-03	-7.272113e-04	2.499905e-01	-2.609859e-03	-7.386936e-04	2.539377e-01	-2.609859e-03	-2.216081e-03	2.539377e-01	-2.609859e-03	-2.181634e-03	2.499905e-01	-1.202154e-03	-7.272113e-04	2.499905e-01	-1.202154e-03	-7.386936e-04	2.539377e-01	-1.202154e-03	-2.216081e-03	2.539377e-01	-1.202154e-03	-2.181634e-03	2.499905e-01	0.000000e+00	-7.272113e-04	2.499905e-01	0.000000e+00	-7.386936e-04	2.539377e-01	0.000000e+00	-2.216081e-03	2.539377e-01	0.000000e+00	-7.501758e-04	2.578849e-01	-1.000000e-01	-2.250527e-03	2.578849e-01	-1.000000e-01	-7.501758e-04	2.578849e-01	-8.727541e-02	-2.250527e-03	2.578849e-01	-8.727541e-02	-7.501758e-04	2.578849e-01	-7.593488e-02	-2.250527e-03	2.578849e-01	-7.593488e-02	-7.501758e-04	2.578849e-01	-6.583932e-02	-2.250527e-03	2.578849e-01	-6.583932e-02	-7.501758e-04	2.578849e-01	-5.686298e-02	-2.250527e-03	2.578849e-01	-5.686298e-02	-7.501758e-04	2.578849e-01	-4.889218e-02	-2.250527e-03	2.578849e-01	-4.889218e-02	-7.501758e-04	2.578849e-01	-4.182420e-02	-2.250527e-03	2.578849e-01	-4.182420e-02	-7.501758e-04	2.578849e-01	-3.556629e-02	-2.250527e-03	2.578849e-01	-3.556629e-02	-7.501758e-04	2.578849e-01	-3.003468e-02	-2.250527e-03	2.578849e-01	-3.003468e-02	-7.501758e-04	2.578849e-01	-2.515378e-02	-2.250527e-03	2.578849e-01	-2.515378e-02	-7.501758e-04	2.578849e-01	-2.085541e-02	-2.250527e-03	2.578849e-01	-2.085541e-02	-7.501758e-04	2.578849e-01	-1.707809e-02	-2.250527e-03	2.578849e-01	-1.707809e-02	-7.501758e-04	2.578849e-01	-1.376640e-02	-2.250527e-03	2.578849e-01	-1.376640e-02	-7.501758e-04	2.578849e-01	-1.087042e-02	-2.250527e-03	2.578849e-01	-1.087042e-02	-7.501758e-04	2.578849e-01	-8.345227e-03	-2.250527e-03	2.578849e-01	-8.345227e-03	-7.501758e-04	2.578849e-01	-6.150369e-03	-2.250527e-03	2.578849e-01	-6.150369e-03	-7.501758e-04	2.578849e-01	-4.249476e-03	-2.250527e-03	2.578849e-01	-4.249476e-03	-7.501758e-04	2.578849e-01	-2.609859e-03	-2.250527e-03	2.578849e-01	-2.609859e-03	-7.501758e-04	2.578849e-01	-1.202154e-03	-2.250527e-03	2.578849e-01	-1.202154e-03	-7.501758e-04	2.578849e-01	0.000000e+00	-2.250527e-03	2.578849e-01	0.000000e+00	-7.616581e-04	2.618321e-01	-1.000000e-01	-2.284974e-03	2.618321e-01	-1.000000e-01	-7.616581e-04	2.618321e-01	-8.727541e-02	-2.284974e-03	2.618321e-01	-8.727541e-02	-7.616581e-04	2.618321e-01	-7.593488e-02	-2.284974e-03	2.618321e-01	-7.593488e-02	-7.616581e-04	2.618321e-01	-6.583932e-02	-2.284974e-03	2.618321e-01	-6.583932e-02	-7.616581e-04	2.618321e-01	-5.686298e-02	-2.284974e-03	2.618321e-01	-5.686298e-02	-7.616581e-04	2.618321e-01	-4.889218e-02	-2.284974e-03	2.618321e-01	-4.889218e-02	-7.616581e-04	2.618321e-01	-4.182420e-02	-2.284974e-03	2.618321e-01	-4.182420e-02	-7.616581e-04	2.618321e-01	-3.556629e-02	-2.284974e-03	2.618321e-01	-3.556629e-02	-7.616581e-04	2.618321e-01	-3.003468e-02	-2.284974e-03	2.618321e-01	-3.003468e-02	-7.616581e-04	2.618321e-01	-2.515378e-02	-2.284974e-03	2.618321e-01	-2.515378e-02	-7.616581e-04	2.618321e-01	-2.085541e-02	-2.284974e-03	2.618321e-01	-2.085541e-02	-7.616581e-04	2.618321e-01	-1.707809e-02	-2.284974e-03	2.618321e-01	-1.707809e-02	-7.616581e-04	2.618321e-01	-1.376640e-02	-2.284974e-03	2.618321e-01	-1.376640e-02	-7.616581e-04	2.618321e-01	-1.087042e-02	-2.284974e-03	2.618321e-01	-1.087042e-02	-7.616581e-04	2.618321e-01	-8.345227e-03	-2.284974e-03	2.618321e-01	-8.345227e-03	-7.616581e-04	2.618321e-01	-6.150369e-03	-2.284974e-03	2.618321e-01	-6.150369e-03	-7.616581e-04	2.618321e-01	-4.249476e-03	-2.284974e-03	2.618321e-01	-4.249476e-03	-7.616581e-04	2.618321e-01	-2.609859e-03	-2.284974e-03	2.618321e-01	-2.609859e-03	-7.616581e-04	2.618321e-01	-1.202154e-03	-2.284974e-03	2.618321e-01	-1.202154e-03	-7.616581e-04	2.618321e-01	0.000000e+00	-2.284974e-03	2.618321e-01	0.000000e+00	-7.731404e-04	2.657794e-01	-1.000000e-01	-2.319421e-03	2.657794e-01	-1.000000e-01	-7.731404e-04	2.657794e-01	-8.727541e-02	-2.319421e-03	2.657794e-01	-8.727541e-02	-7.731404e-04	2.657794e-01	-7.593488e-02	-2.319421e-03	2.657794e-01	-7.593488e-02	-7.731404e-04	2.657794e-01	-6.583932e-02	-2.319421e-03	2.657794e-01	-6.583932e-02	-7.731404e-04	2.657794e-01	-5.686298e-02	-2.319421e-03	2.657794e-01	-5.686298e-02	-7.731404e-04	2.657794e-01	-4.889218e-02	-2.319421e-03	2.657794e-01	-4.889218e-02	-7.731404e-04	2.657794e-01	-4.182420e-02	-2.319421e-03	2.657794e-01	-4.182420e-02	-7.731404e-04	2.657794e-01	-3.556629e-02	-2.319421e-03	2.657794e-01	-3.556629e-02	-7.731404e-04	2.657794e-01	-3.003468e-02	-2.319421e-03	2.657794e-01	-3.003468e-02	-7.731404e-04	2.657794e-01	-2.515378e-02	-2.319421e-03	2.657794e-01	-2.515378e-02	-7.731404e-04	2.657794e-01	-2.085541e-02	-2.319421e-03	2.657794e-01	-2.085541e-02	-7.731404e-04	2.657794e-01	-1.707809e-02	-2.319421e-03	2.657794e-01	-1.707809e-02	-7.731404e-04	2.657794e-01	-1.376640e-02	-2.319421e-03	2.657794e-01	-1.376640e-02	-7.731404e-04	2.657794e-01	-1.087042e-02	-2.319421e-03	2.657794e-01	-1.087042e-02	-7.731404e-04	2.657794e-01	-8.345227e-03	-2.319421e-03	2.657794e-01	-8.345227e-03	-7.731404e-04	2.657794e-01	-6.150369e-03	-2.319421e-03	2.657794e-01	-6.150369e-03	-7.731404e-04	2.657794e-01	-4.249476e-03	-2.319421e-03	2.657794e-01	-4.249476e-03	-7.731404e-04	2.657794e-01	-2.609859e-03	-2.319421e-03	2.657794e-01	-2.609859e-03	-7.731404e-04	2.657794e-01	-1.202154e-03	-2.319421e-03	2.657794e-01	-1.202154e-03	-7.731404e-04	2.657794e-01	0.000000e+00	-2.319421e-03	2.657794e-01	0.000000e+00	-7.846226e-04	2.697266e-01	-1.000000e-01	-2.353868e-03	2.697266e-01	-1.000000e-01	-7.846226e-04	2.697266e-01	-8.727541e-02	-2.353868e-03	2.697266e-01	-8.727541e-02	-7.846226e-04	2.697266e-01	-7.593488e-02	-2.353868e-03	2.697266e-01	-7.593488e-02	-7.846226e-04	2.697266e-01	-6.583932e-02	-2.353868e-03	2.697266e-01	-6.583932e-02	-7.846226e-04	2.697266e-01	-5.686298e-02	-2.353868e-03	2.697266e-01	-5.686298e-02	-7.846226e-04	2.697266e-01	-4.889218e-02	-2.353868e-03	2.697266e-01	-4.889218e-02	-7.846226e-04	2.697266e-01	-4.182420e-02	-2.353868e-03	2.697266e-01	-4.182420e-02	-7.846226e-04	2.697266e-01	-3.556629e-02	-2.353868e-03	2.697266e-01	-3.556629e-02	-7.846226e-04	2.697266e-01	-3.003468e-02	-2.353868e-03	2.697266e-01	-3.003468e-02	-7.846226e-04	2.697266e-01	-2.515378e-02	-2.353868e-03	2.697266e-01	-2.515378e-02	-7.846226e-04	2.697266e-01	-2.085541e-02	-2.353868e-03	2.697266e-01	-2.085541e-02	-7.846226e-04	2.697266e-01	-1.707809e-02	-2.353868e-03	2.697266e-01	-1.707809e-02	-7.846226e-04	2.697266e-01	-1.376640e-02	-2.353868e-03	2.697266e-01	-1.376640e-02	-7.846226e-04	2.697266e-01	-1.087042e-02	-2.353868e-03	2.697266e-01	-1.087042e-02	-7.846226e-04	2.697266e-01	-8.345227e-03	-2.353868e-03	2.697266e-01	-8.345227e-03	-7.846226e-04	2.697266e-01	-6.150369e-03	-2.353868e-03	2.697266e-01	-6.150369e-03	-7.846226e-04	2.697266e-01	-4.249476e-03	-2.353868e-03	2.697266e-01	-4.249476e-03	-7.846226e-04	2.697266e-01	-2.609859e-03	-2.353868e-03	2.697266e-01	-2.609859e-03	-7.846226e-04	2.697266e-01	-1.202154e-03	-2.353868e-03	2.697266e-01	-1.202154e-03	-7.846226e-04	2.697266e-01	0.000000e+00	-2.353868e-03	2.697266e-01	0.000000e+00	-7.961049e-04	2.736738e-01	-1.000000e-01	-2.388315e-03	2.736738e-01	-1.000000e-01	-
[...]
POINT_DATA 9120

SCALARS Density double 1
LOOKUP_TABLE default
1.728962e+00	1.728962e+00	1.728963e+00	1.728963e+00	1.728952e+00	1.728952e+00	1.728952e+00	1.728952e+00	1.728977e+00	1.728977e+00	1.728978e+00	1.728978e+00	1.729004e+00	1.729004e+00	1.729005e+00	1.729005e+00	1.729045e+00	1.729045e+00	1.729047e+00	1.729047e+00	1.729101e+00	1.729101e+00	1.729103e+00	1.729103e+00	1.729164e+00	1.729164e+00	1.729168e+00	1.729168e+00	1.729249e+00	1.729249e+00	1.729255e+00	1.729255e+00	1.729333e+00	1.729333e+00	1.729342e+00	1.729342e+00	1.729445e+00	1.729445e+00	1.729458e+00	1.729458e+00	1.729545e+00	1.729545e+00	1.729566e+00	1.729566e+00	1.729675e+00	1.729675e+00	1.729704e+00	1.729704e+00	1.729792e+00	1.729792e+00	1.729841e+00	1.729840e+00	1.729916e+00	1.729916e+00	1.729970e+00	1.729970e+00	1.730084e+00	1.730084e+00	1.730180e+00	1.730179e+00	1.730115e+00	1.730115e+00	1.730212e+00	1.730212e+00	1.730482e+00	1.730478e+00	1.730622e+00	1.730622e+00	1.730138e+00	1.730149e+00	1.730353e+00	1.730344e+00	1.730495e+00	1.730475e+00	1.730798e+00	1.730807e+00	1.729314e+00	1.729330e+00	1.729644e+00	1.729628e+00	1.728959e+00	1.728959e+00	1.728950e+00	1.728950e+00	1.728974e+00	1.728974e+00	1.728999e+00	1.728999e+00	1.729038e+00	1.729038e+00	1.729090e+00	1.729090e+00	1.729148e+00	1.729148e+00	1.729227e+00	1.729227e+00	1.729300e+00	1.729300e+00	1.729401e+00	1.729401e+00	1.729474e+00	1.729474e+00	1.729594e+00	1.729594e+00	1.729633e+00	1.729634e+00	1.729797e+00	1.729796e+00	1.729704e+00	1.729707e+00	1.730047e+00	1.730042e+00	1.729532e+00	1.729545e+00	1.730512e+00	1.730498e+00	1.728733e+00	1.728764e+00	1.729944e+00	1.729924e+00	1.728956e+00	1.728956e+00	1.728947e+00	1.728947e+00	1.728970e+00	1.728970e+00	1.728994e+00	1.728994e+00	1.729032e+00	1.729032e+00	1.729083e+00	1.729083e+00	1.729140e+00	1.729140e+00	1.729220e+00	1.729220e+00	1.729298e+00	1.729298e+00	1.729408e+00	1.729408e+00	1.729501e+00	1.729501e+00	1.729641e+00	1.729640e+00	1.729747e+00	1.729747e+00	1.729901e+00	1.729901e+00	1.730046e+00	1.730044e+00	1.730135e+00	1.730135e+00	1.730461e+00	1.730458e+00	1.730185e+00	1.730179e+00	1.730779e+00	1.730783e+00	1.729459e+00	1.729444e+00	1.728951e+00	1.728951e+00	1.728943e+00	1.728943e+00	1.728962e+00	1.728962e+00	1.728984e+00	1.728984e+00	1.729015e+00	1.729015e+00	1.729058e+00	1.729058e+00	1.729104e+00	1.729104e+00	1.729168e+00	1.729168e+00	1.729221e+00	1.729221e+00	1.729300e+00	1.729300e+00	1.729344e+00	1.729344e+00	1.729436e+00	1.729436e+00	1.729438e+00	1.729439e+00	1.729565e+00	1.729564e+00	1.729455e+00	1.729457e+00	1.729716e+00	1.729711e+00	1.729307e+00	1.729319e+00	1.730011e+00	1.729996e+00	1.728640e+00	1.728671e+00	1.729299e+00	1.729280e+00	1.728945e+00	1.728945e+00	1.728938e+00	1.728938e+00	1.728955e+00	1.728955e+00	1.728975e+00	1.728975e+00	1.729003e+00	1.729003e+00	1.729044e+00	1.729044e+00	1.729088e+00	1.729087e+00	1.729151e+00	1.729150e+00	1.729209e+00	1.729209e+00	1.729296e+00	1.729296e+00	1.729363e+00	1.729363e+00	1.729474e+00	1.729473e+00	1.729545e+00	1.729545e+00	1.729666e+00	1.729665e+00	1.729758e+00	1.729756e+00	1.729826e+00	1.729825e+00	1.730042e+00	1.730041e+00	1.729843e+00	1.729836e+00	1.730140e+00	1.730141e+00	1.728988e+00	1.728973e+00	1.728937e+00	1.728937e+00	1.728932e+00	1.728932e+00	1.728945e+00	1.728945e+00	1.728960e+00	1.728960e+00	1.728982e+00	1.728982e+00	1.729012e+00	1.729012e+00	1.729042e+00	1.729042e+00	1.729085e+00	1.729084e+00	1.729117e+00	1.729117e+00	1.729169e+00	1.729168e+00	1.729190e+00	1.729190e+00	1.729249e+00	1.729248e+00	1.729239e+00	1.729239e+00	1.729317e+00	1.729316e+00	1.729237e+00	1.729239e+00	1.729395e+00	1.729392e+00	1.729136e+00	1.729145e+00	1.729561e+00	1.729548e+00	1.728585e+00	1.728614e+00	1.728737e+00	1.728719e+00	1.728930e+00	1.728930e+00	1.728926e+00	1.728926e+00	1.728936e+00	1.728936e+00	1.728948e+00	1.728948e+00	1.728965e+00	1.728965e+00	1.728991e+00	1.728991e+00	1.729017e+00	1.729017e+00	1.729056e+00	1.729056e+00	1.729090e+00	1.729090e+00	1.729144e+00	1.729144e+00	1.729182e+00	1.729181e+00	1.729249e+00	1.729249e+00	1.729287e+00	1.729287e+00	1.729358e+00	1.729358e+00	1.729408e+00	1.729407e+00	1.729445e+00	1.729443e+00	1.729567e+00	1.729567e+00	1.729446e+00	1.729438e+00	1.729476e+00	1.729474e+00	1.728528e+00	1.728513e+00	1.728921e+00	1.728921e+00	1.728919e+00	1.728919e+00	1.728925e+00	1.728925e+00	1.728932e+00	1.728932e+00	1.728941e+00	1.728941e+00	1.728956e+00	1.728956e+00	1.728968e+00	1.728968e+00	1.728988e+00	1.728988e+00	1.728999e+00	1.728998e+00	1.729022e+00	1.729022e+00	1.729025e+00	1.729025e+00	1.729050e+00	1.729049e+00	1.729036e+00	1.729036e+00	1.729069e+00	1.729068e+00	1.729022e+00	1.729023e+00	1.729090e+00	1.729087e+00	1.728962e+00	1.728969e+00	1.729151e+00	1.729140e+00	1.728517e+00	1.728545e+00	1.728239e+00	1.728223e+00	1.728912e+00	1.728912e+00	1.728912e+00	1.728912e+00	1.728914e+00	1.728914e+00	1.728919e+00	1.728919e+00	1.728922e+00	1.728922e+00	1.728931e+00	1.728931e+00	1.728936e+00	1.728936e+00	1.728950e+00	1.728950e+00	1.728956e+00	1.728956e+00	1.728975e+00	1.728974e+00	1.728981e+00	1.728981e+00	1.729004e+00	1.729003e+00	1.729010e+00	1.729009e+00	1.729034e+00	1.729033e+00	1.729043e+00	1.729042e+00	1.729056e+00	1.729055e+00	1.729088e+00	1.729089e+00	1.729054e+00	1.729045e+00	1.728838e+00	1.728831e+00	1.728109e+00	1.728095e+00	1.728904e+00	1.728904e+00	1.728905e+00	1.728904e+00	1.728902e+00	1.728902e+00	1.728902e+00	1.728902e+00	1.728898e+00	1.728898e+00	1.728897e+00	1.728897e+00	1.728890e+00	1.728890e+00	1.728887e+00	1.728887e+00	1.728876e+00	1.728876e+00	1.728872e+00	1.728872e+00	1.728857e+00	1.728857e+00	1.728852e+00	1.728852e+00	1.728834e+00	1.728834e+00	1.728828e+00	1.728827e+00	1.728810e+00	1.728810e+00	1.728800e+00	1.728799e+00	1.728787e+00	1.728792e+00	1.728770e+00	1.728760e+00	1.728449e+00	1.728476e+00	1.727791e+00	1.727777e+00	1.728895e+00	1.728895e+00	1.728898e+00	1.728898e+00	1.728892e+00	1.728892e+00	1.728888e+00	1.728888e+00	1.728879e+00	1.728879e+00	1.728870e+00	1.728870e+00	1.728856e+00	1.728856e+00	1.728843e+00	1.728843e+00	1.728822e+00	1.728822e+00	1.728806e+00	1.728806e+00	1.728781e+00	1.728781e+00	1.728763e+00	1.728762e+00	1.728735e+00	1.728734e+00	1.728719e+00	1.728718e+00	1.728684e+00	1.728684e+00	1.728686e+00	1.728683e+00	1.728622e+00	1.728623e+00	1.728686e+00	1.728677e+00	1.728231e+00	1.728219e+00	1.727739e+00	1.727726e+00	1.728887e+00	1.728887e+00	1.728891e+00	1.728891e+00	1.728881e+00	1.728881e+00	1.728873e+00	1.728873e+00	1.728857e+00	1.728857e+00	1.728840e+00	1.728840e+00	1.728816e+00	1.728816e+00	1.728791e+00	1.728791e+00	1.728760e+00	1.728760e+00	1.728730e+00	1.728730e+00	1.728697e+00	1.728697e+00	1.728665e+00	1.728664e+00	1.728640e+00	1.728639e+00	1.728600e+00	1.728600e+00	1.728604e+00	1.728604e+00	1.728528e+00	1.728528e+00	1.728615e+00	1.728619e+00	1.728412e+00	1.728404e+00	1.728387e+00	1.728413e+00	1.727382e+00	1.727371e+00	1.728879e+00	1.728879e+00	1.728885e+00	1.728885e+00	1.728872e+00	1.728872e+00	1.728861e+00	1.728861e+00	1.728840e+00	1.728840e+00	1.728816e+00	1.728816e+00	1.728783e+00	1.728783e+00	1.728747e+00	1.728746e+00	1.728702e+00	1.728701e+00	1.728654e+00	1.728654e+00	1.728599e+00	1.728599e+00	1.728545e+00	1.728545e+00	1.728481e+00	1.728481e+00	1.728433e+00	1.728432e+00	1.728347e+00	1.728348e+00	1.728348e+00	1.728345e+00	1.728174e+00	1.728176e+00	1.728351e+00	1.728343e+00	1.727649e+00	1.727630e+00	1.727421e+00	1.727409e+00	1.728873e+00	1.728873e+00	1.728879e+00	1.728879e+00	1.728863e+00	1.728863e+00	1.728849e+00	1.728849e+00	1.728822e+00	1.728822e+00	1.728792e+00	1.728792e+00	1.728752e+00	1.728752e+00	1.728708e+00	1.728708e+00	1.728657e+00	1.728657e+00	1.728605e+00	1.728604e+00	1.728552e+00	1.728552e+00	1.728496e+00	1.728495e+00	1.728459e+00	1.728458e+00	1.728391e+00	1.728391e+00	1.728407e+00	1.728406e+00	1.728273e+00	1.728274e+00	1.728447e+00	1.728448e+00	1.728071e+00	1.728066e+00	1.728333e+00	1.728359e+00	1.727005e+00	1.726997e+00	1.728867e+00	1.728867e+00	1.728875e+00	1.728875e+00	1.728856e+00	1.728856e+00	1.728839e+00	1.728839e+00	1.728809e+00	1.728809e+00	1.728773e+00	1.728773e+00	1.728725e+00	1.728725e+00	1.728671e+00	1.728671e+00	1.728606e+00	1.728606e+00	1.728535e+00	1.728535e+00	1.728454e+00	1.728454e+00	1.728372e+00	1.728372e+00	1.728272e+00	1.728272e+00	1.728202e+00	1.728201e+00	1.728054e+00	1.728055e+00	1.728068e+00	1.728064e+00	1.727760e+00	1.727762e+00	1.728073e+00	1.728065e+00	1.727092e+00	1.727063e+00	1.727171e+00	1.727161e+00	1.728862e+00	1.728862e+00	1.728871e+00	1.728871e+00	1.728850e+00	1.728850e+00	1.728831e+00	1.728831e+00	1.728796e+00	1.728796e+00	1.728756e+00	1.728756e+00	1.728704e+00	1.728704e+00	1.728645e+00	1.728645e+00	1.728578e+00	1.728578e+00	1.728506e+00	1.728505e+00	1.728433e+00	1.728433e+00	1.728353e+00	1.728353e+00	1.728297e+00	1.728296e+00	1.728201e+00	1.728202e+00	1.728215e+00	1.728213e+00	1.728031e+00	1.728033e+00	1.728272e+00	1.728271e+00	1.727740e+00	1.727738e+00	1.728281e+00	1.728307e+00	1.726660e+00	1.726655e+00	1.728859e+00	1.728859e+00	1.728869e+00	1.728869e+00	1.728846e+00	1.728846e+00	1.728826e+00	1.728826e+00	1.728789e+00	1.728789e+00	1.728746e+00	1.728746e+00	1.728689e+00	1.728689e+00	1.728624e+00	1.728624e+00	1.728547e+00	1.728547e+00	1.728462e+00	1.728462e+00	1.728365e+00	1.728365e+00	1.728268e+00	1.728268e+00	1.728144e+00	1.728144e+00	1.728064e+00	1.728063e+00	1.727862e+00	1.727864e+00	1.727903e+00	1.727899e+00	1.727446e+00	1.727447e+00	1.727919e+00	1.727913e+00	1.726612e+00	1.726571e+00	1.727048e+00	1.727039e+00	1.728856e+00	1.728856e+00	1.728866e+00	1.728866e+00	1.728843e+00	1.728843e+00	1.728821e+00	1.728821e+00	1.728782e+00	1.728782e+00	1.728737e+00	1.728737e+00	1.728678e+00	1.728678e+00	1.728610e+00	1.728610e+00	1.728531e+00	1.728531e+00	1.728444e+00	1.728444e+00	1.728354e+00	1.728353e+00	1.728252e+00	1.728252e+00	1.728165e+00	1.728164e+00	1.728042e+00	1.728043e+00	1.728006e+00	1.728004e+00	1.727802e+00	1.727804e+00	1.727984e+00	1.727983e+00	1.727421e+00	1.727417e+00	1.728056e+00	1.728077e+00	1.726312e+00	1.726307e+00	1.728857e+00	1.728857e+00	1.728867e+00	1.728867e+00	1.728843e+00	1.728843e+00	1.728822e+00	1.728822e+00	1.728783e+00	1.728783e+00	1.728738e+00	1.728738e+00	1.728679e+00	1.728679e+00	1.728612e+00	1.728612e+00	1.728533e+00	1.728533e+00	1.728445e+00	1.728445e+00	1.728352e+00	1.728352e+00	1.728249e+00	1.728249e+00	1.728147e+00	1.728147e+00	1.728033e+00	1.728033e+00	1.727918e+00	1.727918e+00	1.727818e+00	1.727817e+00	1.727588e+00	1.727587e+00	1.727709e+00	1.727709e+00	1.726796e+00	1.726773e+00	1.727046e+00	1.727037e+00	1.728962e+00	1.728963e+00	1.728952e+00	1.728952e+00	1.728977e+00	1.728978e+00	1.729004e+00	1.729005e+00	1.729045e+00	1.729047e+00	1.729101e+00	1.729103e+00	1.729164e+00	1.729168e+00	1.729249e+00	1.729255e+00	1.729333e+00	1.729342e+00	1.729445e+00	1.729458e+00	1.729545e+00	1.729566e+00	1.729675e+00	1.729704e+00	1.729792e+00	1.729841e+00	1.729916e+00	1.729970e+00	1.730084e+00	1.730180e+00	1.730115e+00	1.730212e+00	1.730478e+00	1.730622e+00	1.730150e+00	1.730354e+00	1.730474e+00	1.730797e+00	1.729333e+00	1.729647e+00	1.728959e+00	1.728950e+00	1.728974e+00	1.728999e+00	1.729038e+00	1.729090e+00	1.729148e+00	1.729227e+00	1.729300e+00	1.729401e+00	1.729474e+00	1.729594e+00	1.729633e+00	1.729797e+00	1.729704e+00	1.730047e+00	1.729532e+00	1.730513e+00	1.728732e+00	1.729944e+00	1.728956e+00	1.728947e+00	1.728970e+00	1.728994e+00	1.729032e+00	1.729083e+00	1.729140e+00	1.729220e+00	1.729298e+00	1.729408e+00	1.729501e+00	1.729641e+00	1.729747e+00	1.729901e+00	1.730046e+00	1.730135e+00	1.730460e+00	1.730186e+00	1.730778e+00	1.729462e+00	1.728951e+00	1.728943e+00	1.728962e+00	1.728984e+00	1.729015e+00	1.729058e+00	1.729104e+00	1.729168e+00	1.729221e+00	1.729300e+00	1.729344e+00	1.729436e+00	1.729438e+00	1.729565e+00	1.729455e+00	1.729716e+00	1.729307e+00	1.730011e+00	1.728639e+00	1.729300e+00	1.728945e+00	1.728938e+00	1.728955e+00	1.728975e+00	1.729003e+00	1.729044e+00	1.729088e+00	1.729151e+00	1.729209e+00	1.729296e+00	1.729363e+00	1.729474e+00	1.729545e+00	1.729666e+00	1.729758e+00	1.729826e+00	1.730042e+00	1.729844e+00	1.730139e+00	1.728991e+00	1.728937e+00	1.728932e+00	1.728945e+00	1.728960e+00	1.728982e+00	1.729012e+00	1.729042e+00	1.729085e+00	1.729117e+00	1.729169e+00	1.729190e+00	1.729249e+00	1.729239e+00	1.729317e+00	1.729237e+00	1.729395e+00	1.729136e+00	1.729562e+00	1.728584e+00	1.728738e+00	1.728930e+00	1.728926e+00	1.728936e+00	1.728948e+00	1.728965e+00	1.728991e+00	1.729017e+00	1.729056e+00	1.729090e+00	1.729144e+00	1.729182e+00	1.729249e+00	1.729287e+00	1.729358e+00	1.729408e+00	1.729445e+00	1.729567e+00	1.729447e+00	1.729475e+00	1.728530e+00	1.728921e+00	1.728919e+00	1.728925e+00	1.728932e+00	1.728941e+00	1.728956e+00	1.728968e+00	1.728988e+00	1.728999e+00	1.729022e+00	1.729025e+00	1.729050e+00	1.729036e+00	1.729069e+00	1.729022e+00	1.729090e+00	1.728961e+00	1.729152e+00	1.728515e+00	1.728240e+00	1.728912e+00	1.728912e+00	1.728914e+00	1.728919e+00	1.728922e+00	1.728931e+00	1.728936e+00	1.728950e+00	1.728956e+00	1.728975e+00	1.728981e+00	1.729004e+00	1.729010e+00	1.729034e+00	1.729043e+00	1.729057e+00	1.729088e+00	1.729055e+00	1.728837e+00	1.728112e+00	1.728904e+00	1.728905e+00	1.728902e+00	1.728902e+00	1.728898e+00	1.728897e+00	1.728890e+00	1.728887e+00	1.728876e+00	1.728872e+00	1.728857e+00	1.728852e+00	1.728834e+00	1.728828e+00	1.728810e+00	1.728800e+00	1.728787e+00	1.728771e+00	1.728447e+00	1.727792e+00	1.728895e+00	1.728898e+00	1.728892e+00	1.728888e+00	1.728879e+00	1.728870e+00	1.728856e+00	1.728843e+00	1.728822e+00	1.728806e+00	1.728781e+00	1.728763e+00	1.728735e+00	1.728719e+00	1.728684e+00	1.728686e+00	1.728621e+00	1.728687e+00	1.728230e+00	1.727741e+00	1.728887e+00	1.728891e+00	1.728881e+00	1.728873e+00	1.728857e+00	1.728840e+00	1.728816e+00	1.728791e+00	1.728760e+00	1.728730e+00	1.728697e+00	1.728665e+00	1.728640e+00	1.728600e+00	1.728604e+00	1.728528e+00	1.728615e+00	1.728412e+00	1.728386e+00	1.727383e+00	1.728879e+00	1.728885e+00	1.728872e+00	1.728861e+00	1.728840e+00	1.728816e+00	1.728783e+00	1.728747e+00	1.728702e+00	1.728654e+00	1.728599e+00	1.728545e+00	1.728481e+00	1.728433e+00	1.728347e+00	1.728348e+00	1.728174e+00	1.728352e+00	1.727649e+00	1.727423e+00	1.728873e+00	1.728879e+00	1.728863e+00	1.728849e+00	1.728822e+00	1.728792e+00	1.728752e+00	1.728708e+00	1.728657e+00	1.728605e+00	1.728552e+00	1.728496e+00	1.728459e+00	1.728391e+00	1.728407e+00	1.728273e+00	1.728447e+00	1.728072e+00	1.728332e+00	1.727007e+00	1.728867e+00	1.728875e+00	1.728856e+00	1.728839e+00	1.728809e+00	1.728773e+00	1.728725e+00	1.728671e+00	1.728606e+00	1.728535e+00	1.728454e+00	1.728372e+00	1.728272e+00	1.728202e+00	1.728054e+00	1.728068e+00	1.727760e+00	1.728074e+00	1.727091e+00	1.727173e+00	1.728862e+00	1.728871e+00	1.728850e+00	1.728831e+00	1.728796e+00	1.728756e+00	1.728704e+00	1.728645e+00	1.728578e+00	1.728506e+00	1.728433e+00	1.728353e+00	1.728297e+00	1.728201e+00	1.728215e+00	1.728031e+00	1.728272e+00	1.727740e+00	1.728280e+00	1.726662e+00	1.728859e+00	1.728869e+00	1.728846e+00	1.728826e+00	1.728789e+00	1.728746e+00	1.728689e+00	1.728624e+00	1.728547e+00	1.728462e+00	1.728365e+00	1.728268e+00	1.728144e+00	1.728064e+00	1.727862e+00	1.727903e+00	1.727445e+00	1.727920e+00	1.726611e+00	1.727050e+00	1.728856e+00	1.728866e+00	1.728843e+00	1.728821e+00	1.728782e+00	1.728737e+00	1.728678e+00	1.728610e+00	1.728531e+00	1.728444e+00	1.728354e+00	1.728252e+00	1.728165e+00	1.728042e+00	1.728006e+00	1.727802e+00	1.727984e+00	1.727421e+00	1.728055e+00	1.726313e+00	1.728857e+00	1.728867e+00	1.728843e+00	1.728822e+00	1.728783e+00	1.728738e+00	1.728679e+00	1.728612e+00	1.728533e+00	1.728445e+00	1.728352e+00	1.728249e+00	1.728147e+00	1.728033e+00	1.727918e+00	1.727818e+00	1.727588e+00	1.727709e+00	1.726795e+00	1.727046e+00	1.725959e+00	1.725952e+00	1.725447e+00	1.725466e+00	1.725467e+00	1.725461e+00	1.725508e+00	1.725503e+00	1.716048e+00	1.716054e+00	1.715637e+00	1.715640e+00	1.719309e+00	1.719306e+00	1.719443e+00	1.719431e+00	1.708123e+00	1.708089e+00	1.707871e+00	1.707894e+00	1.707212e+00	1.707213e+00	1.707034e+00	1.707015e+00	1.698373e+00	1.698328e+00	1.697901e+00	1.697916e+00	1.694289e+00	1.694263e+00	1.694026e+00	1.693999e+00	1.681561e+00	1.681499e+00	1.680944e+00	1.680928e+00	1.664751e+00	1.664691e+00	1.664150e+00	1.664111e+00	1.641089e+00	1.641045e+00	1.640763e+00	1.640704e+00	1.616977e+00	1.616966e+00	1.617132e+00	1.617022e+00	1.596957e+00	1.596967e+00	1.597421e+00	1.597265e+00	1.580938e+00	1.580975e+00	1.581948e+00	1.581754e+00	1.566005e+00	1.566044e+00	1.567582e+00	1.567387e+00	1.556080e+00	1.556136e+00	1.558688e+00	1.558449e+00	1.543526e+00	1.543594e+00	1.545746e+00	1.545543e+00	1.543607e+00	1.543709e+00	1.548406e+00	1.548149e+00	1.549095e+00	1.549180e+00	1.554691e+00	1.554456e+00	1.727030e+00	1.727017e+00	1.723711e+00	1.723734e+00	1.718263e+00	1.718227e+00	1.716957e+00	1.716972e+00	1.708577e+00	1.708576e+00	1.707291e+00	1.707280e+00	1.698172e+00	1.698188e+00	1.693059e+00	1.693054e+00	1.680877e+00	1.680870e+00	1.664860e+00	1.664858e+00	1.641451e+00	1.641469e+00	1.618883e+00	1.618914e+00	1.600012e+00	1.600044e+00	1.584698e+00	1.584699e+00	1.571796e+00	1.571783e+00	1.559508e+00	1.559529e+00	1.556070e+00	1.556009e+00	1.549168e+00	1.549080e+00	1.555872e+00	1.556008e+00	1.725060e+00	1.725081e+00	1.725088e+00	1.725076e+00	1.715278e+00	1.715289e+00	1.718921e+00	1.718904e+00	1.707777e+00	1.707802e+00	1.706508e+00	1.706493e+00	1.697555e+00	1.697571e+00	1.693766e+00	1.693746e+00	1.680971e+00	1.680976e+00	1.664779e+00	1.664783e+00	1.642258e+00	1.642276e+00	1.619548e+00	1.619548e+00	1.600442e+00	1.600426e+00	1.585535e+00	1.585511e+00	1.572165e+00	1.572176e+00	1.564096e+00	1.564076e+00	1.551848e+00	1.551891e+00	1.554806e+00	1.554825e+00	1.561562e+00	1.561590e+00	1.726239e+00	1.726231e+00	1.723601e+00	1.723621e+00	1.717474e+00	1.717436e+00	1.716978e+00	1.716994e+00	1.708291e+00	1.708293e+00	1.707121e+00	1.707105e+00	1.698155e+00	1.698168e+00	1.693197e+00	1.693191e+00	1.681247e+00	1.681235e+00	1.665962e+00	1.665949e+00	1.643401e+00	1.643411e+00	1.621792e+00	1.621815e+00	1.603525e+00	1.603541e+00	1.589138e+00	1.589136e+00	1.576480e+00	1.576461e+00	1.565772e+00	1.565793e+00	1.560620e+00	1.560566e+00	1.556611e+00	1.556534e+00	1.562551e+00	1.562645e+00	1.724879e+00	1.724899e+00	1.724518e+00	1.724511e+00	1.715300e+00	1.715309e+00	1.718445e+00	1.718430e+00	1.707650e+00	1.707672e+00	1.706496e+00	1.706483e+00	1.697673e+00	1.697692e+00	1.693937e+00	1.693918e+00	1.681641e+00	1.681645e+00	1.666364e+00	1.666368e+00	1.644682e+00	1.644701e+00	1.622970e+00	1.622972e+00	1.604637e+00	1.604628e+00	1.590427e+00	1.590414e+00	1.577470e+00	1.577483e+00	1.569507e+00	1.569498e+00	1.558491e+00	1.558530e+00	1.560828e+00	1.560848e+00	1.566695e+00	1.566714e+00	1.725477e+00	1.725473e+00	1.723459e+00	1.723473e+00	1.716628e+00	1.716596e+00	1.717075e+00	1.717089e+00	1.707990e+00	1.707997e+00	1.706999e+00	1.706981e+00	1.698227e+00	1.698239e+00	1.693731e+00	1.693723e+00	1.682119e+00	1.682111e+00	1.667636e+00	1.667623e+00	1.646125e+00	1.646136e+00	1.625342e+00	1.625363e+00	1.607628e+00	1.607641e+00	1.593860e+00	1.593860e+00	1.581296e+00	1.581284e+00	1.571740e+00	1.571758e+00	1.564953e+00	1.564916e+00	1.563027e+00	1.562961e+00	1.568214e+00	1.568280e+00	1.724677e+00	1.724696e+00	1.723980e+00	1.723977e+00	1.715363e+00	1.715373e+00	1.718001e+00	1.717985e+00	1.707634e+00	1.707653e+00	1.706659e+00	1.706648e+00	1.698023e+00	1.698042e+00	1.694346e+00	1.694329e+00	1.682624e+00	1.682628e+00	1.668326e+00	1.668328e+00	1.647538e+00	1.647555e+00	1.626841e+00	1.626841e+00	1.609218e+00	1.609211e+00	1.595574e+00	1.595565e+00	1.582893e+00	1.582904e+00	1.574852e+00	1.574847e+00	1.564783e+00	1.564817e+00	1.566264e+00	1.566283e+00	1.571334e+00	1.571338e+00	1.724846e+00	1.724844e+00	1.723285e+00	1.723293e+00	1.715953e+00	1.715928e+00	1.717159e+00	1.717168e+00	1.707789e+00	1.707800e+00	1.706926e+00	1.706906e+00	1.698406e+00	1.698419e+00	1.694394e+00	1.694385e+00	1.683193e+00	1.683188e+00	1.669522e+00	1.669511e+00	1.649096e+00	1.649109e+00	1.629100e+00	1.629120e+00	1.611941e+00	1.611953e+00	1.598591e+00	1.598591e+00	1.586175e+00	1.586169