# vtk DataFile Version 3.0
vtk output
ASCII
DATASET UNSTRUCTURED_GRID
POINTS 6840 double
-2.181634e-03	2.499905e-01	-1.000000e-01	0.000000e+00	2.499905e-01	-1.000000e-01	0.000000e+00	2.539377e-01	-1.000000e-01	-2.216081e-03	2.539377e-01	-1.000000e-01	-2.181634e-03	2.499905e-01	-8.727541e-02	0.000000e+00	2.499905e-01	-8.727541e-02	0.000000e+00	2.539377e-01	-8.727541e-02	-2.216081e-03	2.539377e-01	-8.727541e-02	-2.181634e-03	2.499905e-01	-7.593488e-02	0.000000e+00	2.499905e-01	-7.593488e-02	0.000000e+00	2.539377e-01	-7.593488e-02	-2.216081e-03	2.539377e-01	-7.593488e-02	-2.181634e-03	2.499905e-01	-6.583932e-02	0.000000e+00	2.499905e-01	-6.583932e-02	0.000000e+00	2.539377e-01	-6.583932e-02	-2.216081e-03	2.539377e-01	-6.583932e-02	-2.181634e-03	2.499905e-01	-5.686298e-02	0.000000e+00	2.499905e-01	-5.686298e-02	0.000000e+00	2.539377e-01	-5.686298e-02	-2.216081e-03	2.539377e-01	-5.686298e-02	-2.181634e-03	2.499905e-01	-4.889218e-02	0.000000e+00	2.499905e-01	-4.889218e-02	0.000000e+00	2.539377e-01	-4.889218e-02	-2.216081e-03	2.539377e-01	-4.889218e-02	-2.181634e-03	2.499905e-01	-4.182420e-02	0.000000e+00	2.499905e-01	-4.182420e-02	0.000000e+00	2.539377e-01	-4.182420e-02	-2.216081e-03	2.539377e-01	-4.182420e-02	-2.181634e-03	2.499905e-01	-3.556629e-02	0.000000e+00	2.499905e-01	-3.556629e-02	0.000000e+00	2.539377e-01	-3.556629e-02	-2.216081e-03	2.539377e-01	-3.556629e-02	-2.181634e-03	2.499905e-01	-3.003468e-02	0.000000e+00	2.499905e-01	-3.003468e-02	0.000000e+00	2.539377e-01	-3.003468e-02	-2.216081e-03	2.539377e-01	-3.003468e-02	-2.181634e-03	2.499905e-01	-2.515378e-02	0.000000e+00	2.499905e-01	-2.515378e-02	0.000000e+00	2.539377e-01	-2.515378e-02	-2.216081e-03	2.539377e-01	-2.515378e-02	-2.181634e-03	2.499905e-01	-2.085541e-02	0.000000e+00	2.499905e-01	-2.085541e-02	0.000000e+00	2.539377e-01	-2.085541e-02	-2.216081e-03	2.539377e-01	-2.085541e-02	-2.181634e-03	2.499905e-01	-1.707809e-02	0.000000e+00	2.499905e-01	-1.707809e-02	0.000000e+00	2.539377e-01	-1.707809e-02	-2.216081e-03	2.539377e-01	-1.707809e-02	-2.181634e-03	2.499905e-01	-1.376640e-02	0.000000e+00	2.499905e-01	-1.376640e-02	0.000000e+00	2.539377e-01	-1.376640e-02	-2.216081e-03	2.539377e-01	-1.376640e-02	-2.181634e-03	2.499905e-01	-1.087042e-02	0.000000e+00	2.499905e-01	-1.087042e-02	0.000000e+00	2.539377e-01	-1.087042e-02	-2.216081e-03	2.539377e-01	-1.087042e-02	-2.181634e-03	2.499905e-01	-8.345227e-03	0.000000e+00	2.499905e-01	-8.345227e-03	0.000000e+00	2.539377e-01	-8.345227e-03	-2.216081e-03	2.539377e-01	-8.345227e-03	-2.181634e-03	2.499905e-01	-6.150369e-03	0.000000e+00	2.499905e-01	-6.150369e-03	0.000000e+00	2.539377e-01	-6.150369e-03	-2.216081e-03	2.539377e-01	-6.150369e-03	-2.181634e-03	2.499905e-01	-4.249476e-03	0.000000e+00	2.499905e-01	-4.249476e-03	0.000000e+00	2.539377e-01	-4.249476e-03	-2.216081e-03	2.539377e-01	-4.249476e-03	-2.181634e-03	2.499905e-01	-2.609859e-03	0.000000e+00	2.499905e-01	-2.609859e-03	0.000000e+00	2.539377e-01	-2.609859e-03	-2.216081e-03	2.539377e-01	-2.609859e-03	-2.181634e-03	2.499905e-01	-1.202154e-03	0.000000e+00	2.499905e-01	-1.202154e-03	0.000000e+00	2.539377e-01	-1.202154e-03	-2.216081e-03	2.539377e-01	-1.202154e-03	-2.181634e-03	2.499905e-01	0.000000e+00	0.000000e+00	2.499905e-01	0.000000e+00	0.000000e+00	2.539377e-01	0.000000e+00	-2.216081e-03	2.539377e-01	0.000000e+00	0.000000e+00	2.578849e-01	-1.000000e-01	-2.250527e-03	2.578849e-01	-1.000000e-01	-0.000000e+00	2.578849e-01	-8.727541e-02	-2.250527e-03	2.578849e-01	-8.727541e-02	-0.000000e+00	2.578849e-01	-7.593488e-02	-2.250527e-03	2.578849e-01	-7.593488e-02	-0.000000e+00	2.578849e-01	-6.583932e-02	-2.250527e-03	2.578849e-01	-6.583932e-02	-0.000000e+00	2.578849e-01	-5.686298e-02	-2.250527e-03	2.578849e-01	-5.686298e-02	-0.000000e+00	2.578849e-01	-4.889218e-02	-2.250527e-03	2.578849e-01	-4.889218e-02	-0.000000e+00	2.578849e-01	-4.182420e-02	-2.250527e-03	2.578849e-01	-4.182420e-02	-0.000000e+00	2.578849e-01	-3.556629e-02	-2.250527e-03	2.578849e-01	-3.556629e-02	0.000000e+00	2.578849e-01	-3.003468e-02	-2.250527e-03	2.578849e-01	-3.003468e-02	0.000000e+00	2.578849e-01	-2.515378e-02	-2.250527e-03	2.578849e-01	-2.515378e-02	0.000000e+00	2.578849e-01	-2.085541e-02	-2.250527e-03	2.578849e-01	-2.085541e-02	-0.000000e+00	2.578849e-01	-1.707809e-02	-2.250527e-03	2.578849e-01	-1.707809e-02	0.000000e+00	2.578849e-01	-1.376640e-02	-2.250527e-03	2.578849e-01	-1.376640e-02	-0.000000e+00	2.578849e-01	-1.087042e-02	-2.250527e-03	2.578849e-01	-1.087042e-02	0.000000e+00	2.578849e-01	-8.345227e-03	-2.250527e-03	2.578849e-01	-8.345227e-03	-0.000000e+00	2.578849e-01	-6.150369e-03	-2.250527e-03	2.578849e-01	-6.150369e-03	0.000000e+00	2.578849e-01	-4.249476e-03	-2.250527e-03	2.578849e-01	-4.249476e-03	0.000000e+00	2.578849e-01	-2.609859e-03	-2.250527e-03	2.578849e-01	-2.609859e-03	0.000000e+00	2.578849e-01	-1.202154e-03	-2.250527e-03	2.578849e-01	-1.202154e-03	0.000000e+00	2.578849e-01	0.000000e+00	-2.250527e-03	2.578849e-01	0.000000e+00	0.000000e+00	2.618321e-01	-1.000000e-01	-2.284974e-03	2.618321e-01	-1.000000e-01	-0.000000e+00	2.618321e-01	-8.727541e-02	-2.284974e-03	2.618321e-01	-8.727541e-02	0.000000e+00	2.618321e-01	-7.593488e-02	-2.284974e-03	2.618321e-01	-7.593488e-02	0.000000e+00	2.618321e-01	-6.583932e-02	-2.284974e-03	2.618321e-01	-6.583932e-02	0.000000e+00	2.618321e-01	-5.686298e-02	-2.284974e-03	2.618321e-01	-5.686298e-02	0.000000e+00	2.618321e-01	-4.889218e-02	-2.284974e-03	2.618321e-01	-4.889218e-02	0.000000e+00	2.618321e-01	-4.182420e-02	-2.284974e-03	2.618321e-01	-4.182420e-02	0.000000e+00	2.618321e-01	-3.556629e-02	-2.284974e-03	2.618321e-01	-3.556629e-02	0.000000e+00	2.618321e-01	-3.003468e-02	-2.284974e-03	2.618321e-01	-3.003468e-02	0.000000e+00	2.618321e-01	-2.515378e-02	-2.284974e-03	2.618321e-01	-2.515378e-02	0.000000e+00	2.618321e-01	-2.085541e-02	-2.284974e-03	2.618321e-01	-2.085541e-02	0.000000e+00	2.618321e-01	-1.707809e-02	-2.284974e-03	2.618321e-01	-1.707809e-02	0.000000e+00	2.618321e-01	-1.376640e-02	-2.284974e-03	2.618321e-01	-1.376640e-02	0.000000e+00	2.618321e-01	-1.087042e-02	-2.284974e-03	2.618321e-01	-1.087042e-02	-0.000000e+00	2.618321e-01	-8.345227e-03	-2.284974e-03	2.618321e-01	-8.345227e-03	0.000000e+00	2.618321e-01	-6.150369e-03	-2.284974e-03	2.618321e-01	-6.150369e-03	0.000000e+00	2.618321e-01	-4.249476e-03	-2.284974e-03	2.618321e-01	-4.249476e-03	0.000000e+00	2.618321e-01	-2.609859e-03	-2.284974e-03	2.618321e-01	-2.609859e-03	0.000000e+00	2.618321e-01	-1.202154e-03	-2.284974e-03	2.618321e-01	-1.202154e-03	0.000000e+00	2.618321e-01	0.000000e+00	-2.284974e-03	2.618321e-01	0.000000e+00	0.000000e+00	2.657794e-01	-1.000000e-01	-2.319421e-03	2.657794e-01	-1.000000e-01	-0.000000e+00	2.657794e-01	-8.727541e-02	-2.319421e-03	2.657794e-01	-8.727541e-02	0.000000e+00	2.657794e-01	-7.593488e-02	-2.319421e-03	2.657794e-01	-7.593488e-02	0.000000e+00	2.657794e-01	-6.583932e-02	-2.319421e-03	2.657794e-01	-6.583932e-02	-0.000000e+00	2.657794e-01	-5.686298e-02	-2.319421e-03	2.657794e-01	-5.686298e-02	0.000000e+00	2.657794e-01	-4.889218e-02	-2.319421e-03	2.657794e-01	-4.889218e-02	-0.000000e+00	2.657794e-01	-4.182420e-02	-2.319421e-03	2.657794e-01	-4.182420e-02	-0.000000e+00	2.657794e-01	-3.556629e-02	-2.319421e-03	2.657794e-01	-3.556629e-02	-0.000000e+00	2.657794e-01	-3.003468e-02	-2.319421e-03	2.657794e-01	-3.003468e-02	-0.000000e+00	2.657794e-01	-2.515378e-02	-2.319421e-03	2.657794e-01	-2.515378e-02	-0.000000e+00	2.657794e-01	-2.085541e-02	-2.319421e-03	2.657794e-01	-2.085541e-02	-0.000000e+00	2.657794e-01	-1.707809e-02	-2.319421e-03	2.657794e-01	-1.707809e-02	0.000000e+00	2.657794e-01	-1.376640e-02	-2.319421e-03	2.657794e-01	-1.376640e-02	-0.000000e+00	2.657794e-01	-1.087042e-02	-2.319421e-03	2.657794e-01	-1.087042e-02	-0.000000e+00	2.657794e-01	-8.345227e-03	-2.319421e-03	2.657794e-01	-8.345227e-03	-0.000000e+00	2.657794e-01	-6.150369e-03	-2.319421e-03	2.657794e-01	-6.150369e-03	0.000000e+00	2.657794e-01	-4.249476e-03	-2.319421e-03	2.657794e-01	-4.249476e-03	0.000000e+00	2.657794e-01	-2.609859e-03	-2.319421e-03	2.657794e-01	-2.609859e-03	0.000000e+00	2.657794e-01	-1.202154e-03	-2.319421e-03	2.657794e-01	-1.202154e-03	0.000000e+00	2.657794e-01	0.000000e+00	-2.319421e-03	2.657794e-01	0.000000e+00	0.000000e+00	2.697266e-01	-1.000000e-01	-2.353868e-03	2.697266e-01	-1.000000e-01	0.000000e+00	2.697266e-01	-8.727541e-02	-2.353868e-03	2.697266e-01	-8.727541e-02	0.000000e+00	2.697266e-01	-7.593488e-02	-2.353868e-03	2.697266e-01	-7.593488e-02	0.000000e+00	2.697266e-01	-6.583932e-02	-2.353868e-03	2.697266e-01	-6.583932e-02	0.000000e+00	2.697266e-01	-5.686298e-02	-2.353868e-03	2.697266e-01	-5.686298e-02	0.000000e+00	2.697266e-01	-4.889218e-02	-2.353868e-03	2.697266e-01	-4.889218e-02	0.000000e+00	2.697266e-01	-4.182420e-02	-2.353868e-03	2.697266e-01	-4.182420e-02	0.000000e+00	2.697266e-01	-3.556629e-02	-2.353868e-03	2.697266e-01	-3.556629e-02	0.000000e+00	2.697266e-01	-3.003468e-02	-2.353868e-03	2.697266e-01	-3.003468e-02	0.000000e+00	2.697266e-01	-2.515378e-02	-2.353868e-03	2.697266e-01	-2.515378e-02	0.000000e+00	2.697266e-01	-2.085541e-02	-2.353868e-03	2.697266e-01	-2.085541e-02	0.000000e+00	2.697266e-01	-1.707809e-02	-2.353868e-03	2.697266e-01	-1.707809e-02	0.000000e+00	2.697266e-01	-1.376640e-02	-2.353868e-03	2.697266e-01	-1.376640e-02	0.000000e+00	2.697266e-01	-1.087042e-02	-2.353868e-03	2.697266e-01	-1.087042e-02	-0.000000e+00	2.697266e-01	-8.345227e-03	-2.353868e-03	2.697266e-01	-8.345227e-03	0.000000e+00	2.697266e-01	-6.150369e-03	-2.353868e-03	2.697266e-01	-6.150369e-03	0.000000e+00	2.697266e-01	-4.249476e-03	-2.353868e-03	2.697266e-01	-4.249476e-03	0.000000e+00	2.697266e-01	-2.609859e-03	-2.353868e-03	2.697266e-01	-2.609859e-03	0.000000e+00	2.697266e-01	-1.202154e-03	-2.353868e-03	2.697266e-01	-1.202154e-03	0.000000e+00	2.697266e-01	0.000000e+00	-2.353868e-03	2.697266e-01	0.000000e+00	0.000000e+00	2.736738e-01	-1.000000e-01	-2.388315e-03	2.736738e-01	-1.000000e-01	0.000000e+00	2.736738e-01	-8.727541e-02	-2.388315e-03	2.736738e-01	-8.727541e-02	0.000000e+00	2.73
[...]
POINT_DATA 6840

SCALARS Density double 1
LOOKUP_TABLE default
1.728959e+00	1.728959e+00	1.728960e+00	1.728960e+00	1.728951e+00	1.728951e+00	1.728951e+00	1.728951e+00	1.728974e+00	1.728974e+00	1.728975e+00	1.728975e+00	1.729004e+00	1.729004e+00	1.729005e+00	1.729005e+00	1.729042e+00	1.729042e+00	1.729043e+00	1.729043e+00	1.729102e+00	1.729102e+00	1.729104e+00	1.729104e+00	1.729159e+00	1.729159e+00	1.729163e+00	1.729163e+00	1.729252e+00	1.729251e+00	1.729258e+00	1.729258e+00	1.729326e+00	1.729326e+00	1.729335e+00	1.729335e+00	1.729450e+00	1.729450e+00	1.729464e+00	1.729464e+00	1.729535e+00	1.729534e+00	1.729556e+00	1.729556e+00	1.729685e+00	1.729684e+00	1.729713e+00	1.729713e+00	1.729778e+00	1.729776e+00	1.729825e+00	1.729826e+00	1.729932e+00	1.729930e+00	1.729984e+00	1.729985e+00	1.730063e+00	1.730059e+00	1.730156e+00	1.730158e+00	1.730142e+00	1.730140e+00	1.730235e+00	1.730235e+00	1.730448e+00	1.730437e+00	1.730579e+00	1.730586e+00	1.730188e+00	1.730200e+00	1.730401e+00	1.730385e+00	1.730452e+00	1.730422e+00	1.730733e+00	1.730746e+00	1.729356e+00	1.729373e+00	1.729688e+00	1.729664e+00	1.728957e+00	1.728957e+00	1.728949e+00	1.728949e+00	1.728971e+00	1.728971e+00	1.728999e+00	1.728999e+00	1.729034e+00	1.729034e+00	1.729091e+00	1.729091e+00	1.729143e+00	1.729143e+00	1.729229e+00	1.729229e+00	1.729292e+00	1.729293e+00	1.729406e+00	1.729406e+00	1.729462e+00	1.729463e+00	1.729604e+00	1.729606e+00	1.729613e+00	1.729618e+00	1.729816e+00	1.729818e+00	1.729673e+00	1.729685e+00	1.730080e+00	1.730079e+00	1.729490e+00	1.729523e+00	1.730551e+00	1.730540e+00	1.728706e+00	1.728771e+00	1.729988e+00	1.729970e+00	1.728953e+00	1.728953e+00	1.728946e+00	1.728946e+00	1.728967e+00	1.728967e+00	1.728994e+00	1.728994e+00	1.729028e+00	1.729028e+00	1.729084e+00	1.729084e+00	1.729136e+00	1.729136e+00	1.729223e+00	1.729223e+00	1.729291e+00	1.729291e+00	1.729414e+00	1.729414e+00	1.729491e+00	1.729492e+00	1.729650e+00	1.729650e+00	1.729732e+00	1.729733e+00	1.729914e+00	1.729914e+00	1.730023e+00	1.730024e+00	1.730152e+00	1.730150e+00	1.730420e+00	1.730424e+00	1.730224e+00	1.730208e+00	1.730709e+00	1.730713e+00	1.729497e+00	1.729473e+00	1.728948e+00	1.728948e+00	1.728942e+00	1.728942e+00	1.728960e+00	1.728960e+00	1.728983e+00	1.728983e+00	1.729011e+00	1.729012e+00	1.729059e+00	1.729059e+00	1.729099e+00	1.729099e+00	1.729170e+00	1.729170e+00	1.729213e+00	1.729213e+00	1.729305e+00	1.729305e+00	1.729331e+00	1.729333e+00	1.729446e+00	1.729447e+00	1.729418e+00	1.729423e+00	1.729583e+00	1.729585e+00	1.729424e+00	1.729436e+00	1.729748e+00	1.729748e+00	1.729265e+00	1.729295e+00	1.730054e+00	1.730042e+00	1.728607e+00	1.728668e+00	1.729341e+00	1.729324e+00	1.728942e+00	1.728942e+00	1.728937e+00	1.728937e+00	1.728953e+00	1.728953e+00	1.728975e+00	1.728975e+00	1.729000e+00	1.729000e+00	1.729045e+00	1.729045e+00	1.729083e+00	1.729083e+00	1.729154e+00	1.729154e+00	1.729202e+00	1.729202e+00	1.729302e+00	1.729302e+00	1.729353e+00	1.729354e+00	1.729484e+00	1.729483e+00	1.729530e+00	1.729531e+00	1.729680e+00	1.729679e+00	1.729734e+00	1.729735e+00	1.729846e+00	1.729842e+00	1.730003e+00	1.730006e+00	1.729883e+00	1.729866e+00	1.730082e+00	1.730080e+00	1.729025e+00	1.729002e+00	1.728935e+00	1.728935e+00	1.728931e+00	1.728931e+00	1.728943e+00	1.728943e+00	1.728960e+00	1.728960e+00	1.728978e+00	1.728978e+00	1.729012e+00	1.729012e+00	1.729036e+00	1.729036e+00	1.729087e+00	1.729087e+00	1.729108e+00	1.729109e+00	1.729173e+00	1.729174e+00	1.729177e+00	1.729179e+00	1.729258e+00	1.729259e+00	1.729220e+00	1.729223e+00	1.729334e+00	1.729336e+00	1.729208e+00	1.729217e+00	1.729425e+00	1.729424e+00	1.729095e+00	1.729119e+00	1.729603e+00	1.729592e+00	1.728546e+00	1.728600e+00	1.728775e+00	1.728759e+00	1.728927e+00	1.728927e+00	1.728925e+00	1.728925e+00	1.728934e+00	1.728934e+00	1.728948e+00	1.728948e+00	1.728962e+00	1.728962e+00	1.728992e+00	1.728992e+00	1.729012e+00	1.729012e+00	1.729060e+00	1.729059e+00	1.729083e+00	1.729083e+00	1.729151e+00	1.729150e+00	1.729172e+00	1.729172e+00	1.729260e+00	1.729259e+00	1.729273e+00	1.729273e+00	1.729374e+00	1.729372e+00	1.729385e+00	1.729386e+00	1.729468e+00	1.729463e+00	1.729531e+00	1.729532e+00	1.729488e+00	1.729469e+00	1.729430e+00	1.729421e+00	1.728565e+00	1.728542e+00	1.728919e+00	1.728919e+00	1.728918e+00	1.728918e+00	1.728922e+00	1.728922e+00	1.728932e+00	1.728932e+00	1.728937e+00	1.728938e+00	1.728956e+00	1.728956e+00	1.728962e+00	1.728962e+00	1.728990e+00	1.728990e+00	1.728990e+00	1.728991e+00	1.729026e+00	1.729027e+00	1.729013e+00	1.729014e+00	1.729059e+00	1.729059e+00	1.729018e+00	1.729020e+00	1.729084e+00	1.729085e+00	1.728996e+00	1.729002e+00	1.729116e+00	1.729115e+00	1.728923e+00	1.728941e+00	1.729191e+00	1.729180e+00	1.728474e+00	1.728521e+00	1.728274e+00	1.728259e+00	1.728910e+00	1.728910e+00	1.728911e+00	1.728911e+00	1.728912e+00	1.728912e+00	1.728918e+00	1.728918e+00	1.728919e+00	1.728919e+00	1.728932e+00	1.728932e+00	1.728932e+00	1.728932e+00	1.728953e+00	1.728952e+00	1.728950e+00	1.728950e+00	1.728981e+00	1.728980e+00	1.728971e+00	1.728971e+00	1.729014e+00	1.729013e+00	1.728995e+00	1.728995e+00	1.729050e+00	1.729047e+00	1.729021e+00	1.729020e+00	1.729082e+00	1.729075e+00	1.729055e+00	1.729054e+00	1.729097e+00	1.729078e+00	1.728803e+00	1.728786e+00	1.728147e+00	1.728124e+00	1.728901e+00	1.728901e+00	1.728904e+00	1.728904e+00	1.728900e+00	1.728900e+00	1.728902e+00	1.728902e+00	1.728895e+00	1.728895e+00	1.728897e+00	1.728897e+00	1.728885e+00	1.728885e+00	1.728889e+00	1.728889e+00	1.728869e+00	1.728869e+00	1.728877e+00	1.728876e+00	1.728846e+00	1.728847e+00	1.728860e+00	1.728860e+00	1.728818e+00	1.728819e+00	1.728842e+00	1.728841e+00	1.728787e+00	1.728790e+00	1.728823e+00	1.728822e+00	1.728751e+00	1.728764e+00	1.728806e+00	1.728797e+00	1.728403e+00	1.728445e+00	1.727822e+00	1.727810e+00	1.728893e+00	1.728893e+00	1.728897e+00	1.728897e+00	1.728889e+00	1.728889e+00	1.728888e+00	1.728888e+00	1.728876e+00	1.728876e+00	1.728871e+00	1.728871e+00	1.728851e+00	1.728851e+00	1.728845e+00	1.728845e+00	1.728816e+00	1.728816e+00	1.728811e+00	1.728811e+00	1.728772e+00	1.728771e+00	1.728772e+00	1.728771e+00	1.728721e+00	1.728720e+00	1.728735e+00	1.728732e+00	1.728664e+00	1.728662e+00	1.728713e+00	1.728705e+00	1.728592e+00	1.728589e+00	1.728729e+00	1.728708e+00	1.728208e+00	1.728181e+00	1.727777e+00	1.727754e+00	1.728885e+00	1.728885e+00	1.728890e+00	1.728890e+00	1.728878e+00	1.728878e+00	1.728873e+00	1.728873e+00	1.728854e+00	1.728854e+00	1.728841e+00	1.728841e+00	1.728811e+00	1.728811e+00	1.728793e+00	1.728793e+00	1.728753e+00	1.728753e+00	1.728734e+00	1.728734e+00	1.728687e+00	1.728687e+00	1.728672e+00	1.728671e+00	1.728626e+00	1.728625e+00	1.728613e+00	1.728611e+00	1.728584e+00	1.728584e+00	1.728548e+00	1.728546e+00	1.728583e+00	1.728591e+00	1.728444e+00	1.728436e+00	1.728339e+00	1.728377e+00	1.727409e+00	1.727399e+00	1.728877e+00	1.728877e+00	1.728884e+00	1.728884e+00	1.728869e+00	1.728869e+00	1.728861e+00	1.728861e+00	1.728836e+00	1.728836e+00	1.728817e+00	1.728817e+00	1.728778e+00	1.728778e+00	1.728749e+00	1.728749e+00	1.728695e+00	1.728695e+00	1.728659e+00	1.728658e+00	1.728590e+00	1.728590e+00	1.728554e+00	1.728553e+00	1.728468e+00	1.728467e+00	1.728450e+00	1.728446e+00	1.728328e+00	1.728326e+00	1.728377e+00	1.728366e+00	1.728149e+00	1.728143e+00	1.728393e+00	1.728372e+00	1.727638e+00	1.727599e+00	1.727459e+00	1.727436e+00	1.728870e+00	1.728870e+00	1.728878e+00	1.728878e+00	1.728860e+00	1.728860e+00	1.728848e+00	1.728848e+00	1.728818e+00	1.728818e+00	1.728792e+00	1.728792e+00	1.728747e+00	1.728747e+00	1.728710e+00	1.728710e+00	1.728651e+00	1.728651e+00	1.728609e+00	1.728608e+00	1.728544e+00	1.728543e+00	1.728503e+00	1.728501e+00	1.728447e+00	1.728445e+00	1.728401e+00	1.728399e+00	1.728390e+00	1.728388e+00	1.728289e+00	1.728287e+00	1.728418e+00	1.728422e+00	1.728099e+00	1.728093e+00	1.728284e+00	1.728318e+00	1.727029e+00	1.727022e+00	1.728865e+00	1.728865e+00	1.728874e+00	1.728874e+00	1.728854e+00	1.728854e+00	1.728839e+00	1.728839e+00	1.728805e+00	1.728805e+00	1.728774e+00	1.728773e+00	1.728721e+00	1.728721e+00	1.728673e+00	1.728673e+00	1.728600e+00	1.728600e+00	1.728539e+00	1.728538e+00	1.728445e+00	1.728444e+00	1.728381e+00	1.728379e+00	1.728260e+00	1.728258e+00	1.728218e+00	1.728214e+00	1.728037e+00	1.728033e+00	1.728097e+00	1.728085e+00	1.727740e+00	1.727729e+00	1.728113e+00	1.728092e+00	1.727093e+00	1.727040e+00	1.727209e+00	1.727186e+00	1.728860e+00	1.728860e+00	1.728870e+00	1.728870e+00	1.728847e+00	1.728847e+00	1.728830e+00	1.728830e+00	1.728793e+00	1.728793e+00	1.728757e+00	1.728757e+00	1.728700e+00	1.728700e+00	1.728647e+00	1.728647e+00	1.728572e+00	1.728572e+00	1.728510e+00	1.728509e+00	1.728426e+00	1.728424e+00	1.728360e+00	1.728358e+00	1.728287e+00	1.728284e+00	1.728211e+00	1.728208e+00	1.728201e+00	1.728197e+00	1.728043e+00	1.728043e+00	1.728247e+00	1.728247e+00	1.727763e+00	1.727761e+00	1.728231e+00	1.728263e+00	1.726681e+00	1.726678e+00	1.728857e+00	1.728857e+00	1.728868e+00	1.728868e+00	1.728843e+00	1.728843e+00	1.728825e+00	1.728825e+00	1.728786e+00	1.728786e+00	1.728746e+00	1.728746e+00	1.728685e+00	1.728685e+00	1.728626e+00	1.728625e+00	1.728541e+00	1.728541e+00	1.728466e+00	1.728465e+00	1.728357e+00	1.728356e+00	1.728277e+00	1.728274e+00	1.728133e+00	1.728130e+00	1.728080e+00	1.728074e+00	1.727846e+00	1.727842e+00	1.727930e+00	1.727917e+00	1.727429e+00	1.727415e+00	1.727954e+00	1.727935e+00	1.726623e+00	1.726554e+00	1.727086e+00	1.727065e+00	1.728854e+00	1.728854e+00	1.728866e+00	1.728865e+00	1.728840e+00	1.728840e+00	1.728821e+00	1.728821e+00	1.728779e+00	1.728779e+00	1.728737e+00	1.728737e+00	1.728674e+00	1.728673e+00	1.728611e+00	1.728611e+00	1.728526e+00	1.728525e+00	1.728448e+00	1.728447e+00	1.728347e+00	1.728345e+00	1.728258e+00	1.728256e+00	1.728156e+00	1.728153e+00	1.728052e+00	1.728049e+00	1.727994e+00	1.727989e+00	1.727816e+00	1.727814e+00	1.727964e+00	1.727959e+00	1.727448e+00	1.727442e+00	1.728013e+00	1.728034e+00	1.726336e+00	1.726330e+00	1.728855e+00	1.728855e+00	1.728866e+00	1.728866e+00	1.728841e+00	1.728841e+00	1.728821e+00	1.728821e+00	1.728780e+00	1.728780e+00	1.728739e+00	1.728738e+00	1.728675e+00	1.728675e+00	1.728613e+00	1.728613e+00	1.728527e+00	1.728527e+00	1.728449e+00	1.728448e+00	1.728345e+00	1.728343e+00	1.728255e+00	1.728253e+00	1.728138e+00	1.728136e+00	1.728043e+00	1.728040e+00	1.727906e+00	1.727902e+00	1.727833e+00	1.727827e+00	1.727573e+00	1.727565e+00	1.727728e+00	1.727723e+00	1.726791e+00	1.726756e+00	1.727077e+00	1.727065e+00	1.725926e+00	1.725925e+00	1.725413e+00	1.725430e+00	1.725457e+00	1.725458e+00	1.725515e+00	1.725509e+00	1.716052e+00	1.716068e+00	1.715636e+00	1.715640e+00	1.719320e+00	1.719333e+00	1.719474e+00	1.719448e+00	1.708064e+00	1.708034e+00	1.707790e+00	1.707827e+00	1.707276e+00	1.707322e+00	1.707122e+00	1.707081e+00	1.698311e+00	1.698306e+00	1.697845e+00	1.697858e+00	1.694333e+00	1.694335e+00	1.694038e+00	1.694031e+00	1.681522e+00	1.681505e+00	1.680826e+00	1.680848e+00	1.664920e+00	1.664940e+00	1.664206e+00	1.664187e+00	1.641251e+00	1.641251e+00	1.640700e+00	1.640697e+00	1.617271e+00	1.617265e+00	1.617081e+00	1.617085e+00	1.597309e+00	1.597313e+00	1.597345e+00	1.597342e+00	1.581354e+00	1.581374e+00	1.581896e+00	1.581880e+00	1.566470e+00	1.566474e+00	1.567501e+00	1.567503e+00	1.556515e+00	1.556488e+00	1.558539e+00	1.558553e+00	1.544066e+00	1.544098e+00	1.545666e+00	1.545677e+00	1.544187e+00	1.544220e+00	1.548406e+00	1.548360e+00	1.549630e+00	1.549611e+00	1.554556e+00	1.554558e+00	1.727002e+00	1.726969e+00	1.723712e+00	1.723734e+00	1.718270e+00	1.718208e+00	1.716966e+00	1.716967e+00	1.708557e+00	1.708559e+00	1.707331e+00	1.707295e+00	1.698124e+00	1.698129e+00	1.693081e+00	1.693082e+00	1.680780e+00	1.680800e+00	1.664939e+00	1.664916e+00	1.641451e+00	1.641451e+00	1.618951e+00	1.618957e+00	1.600084e+00	1.600057e+00	1.584686e+00	1.584666e+00	1.571858e+00	1.571803e+00	1.559435e+00	1.559497e+00	1.556137e+00	1.555948e+00	1.549010e+00	1.549041e+00	1.555993e+00	1.556062e+00	1.725017e+00	1.725039e+00	1.725109e+00	1.725097e+00	1.715265e+00	1.715278e+00	1.718965e+00	1.718935e+00	1.707692e+00	1.707729e+00	1.706600e+00	1.706565e+00	1.697507e+00	1.697522e+00	1.693792e+00	1.693780e+00	1.680870e+00	1.680891e+00	1.664853e+00	1.664836e+00	1.642228e+00	1.642225e+00	1.619534e+00	1.619540e+00	1.600412e+00	1.600414e+00	1.585566e+00	1.585556e+00	1.572151e+00	1.572160e+00	1.564072e+00	1.564082e+00	1.551855e+00	1.551885e+00	1.554946e+00	1.554906e+00	1.561542e+00	1.561543e+00	1.726217e+00	1.726196e+00	1.723595e+00	1.723614e+00	1.717489e+00	1.717428e+00	1.716983e+00	1.716988e+00	1.708266e+00	1.708273e+00	1.707165e+00	1.707122e+00	1.698105e+00	1.698107e+00	1.693213e+00	1.693215e+00	1.681143e+00	1.681164e+00	1.666032e+00	1.666007e+00	1.643384e+00	1.643390e+00	1.621851e+00	1.621852e+00	1.603569e+00	1.603553e+00	1.589135e+00	1.589110e+00	1.576520e+00	1.576479e+00	1.565691e+00	1.565745e+00	1.560675e+00	1.560528e+00	1.556506e+00	1.556513e+00	1.562612e+00	1.562668e+00	1.724841e+00	1.724861e+00	1.724531e+00	1.724523e+00	1.715290e+00	1.715305e+00	1.718480e+00	1.718451e+00	1.707577e+00	1.707610e+00	1.706577e+00	1.706547e+00	1.697625e+00	1.697644e+00	1.693964e+00	1.693952e+00	1.681544e+00	1.681565e+00	1.666436e+00	1.666418e+00	1.644654e+00	1.644650e+00	1.622961e+00	1.622963e+00	1.604608e+00	1.604611e+00	1.590441e+00	1.590436e+00	1.577462e+00	1.577471e+00	1.569469e+00	1.569483e+00	1.558490e+00	1.558524e+00	1.560944e+00	1.560909e+00	1.566677e+00	1.566675e+00	1.725455e+00	1.725442e+00	1.723455e+00	1.723466e+00	1.716640e+00	1.716592e+00	1.717085e+00	1.717088e+00	1.707957e+00	1.707971e+00	1.707051e+00	1.707005e+00	1.698179e+00	1.698181e+00	1.693748e+00	1.693748e+00	1.682019e+00	1.682039e+00	1.667706e+00	1.667681e+00	1.646104e+00	1.646111e+00	1.625391e+00	1.625393e+00	1.607656e+00	1.607648e+00	1.593870e+00	1.593847e+00	1.581323e+00	1.581299e+00	1.571678e+00	1.571718e+00	1.564993e+00	1.564892e+00	1.562980e+00	1.562969e+00	1.568238e+00	1.568285e+00	1.724643e+00	1.724664e+00	1.723987e+00	1.723981e+00	1.715356e+00	1.715374e+00	1.718028e+00	1.717997e+00	1.707572e+00	1.707601e+00	1.706729e+00	1.706704e+00	1.697973e+00	1.697995e+00	1.694371e+00	1.694360e+00	1.682531e+00	1.682551e+00	1.668397e+00	1.668379e+00	1.647514e+00	1.647508e+00	1.626841e+00	1.626840e+00	1.609194e+00	1.609198e+00	1.595578e+00	1.595577e+00	1.582891e+00	1.582900e+00	1.574807e+00	1.574822e+00	1.564774e+00	1.564816e+00	1.566368e+00	1.566335e+00	1.571314e+00	1.571308e+00	1.724822e+00	1.724816e+00	1.723285e+00	1.723288e+00	1.715962e+00	1.715926e+00	1.717172e+00	1.717171e+00	1.707748e+00	1.707768e+00	1.706983e+00	1.706938e+00	1.698361e+00	1.698363e+00	1.694414e+00	1.694412e+00	1.683098e+00	1.683118e+00	1.669590e+00	1.669566e+00	1.649074e+00	1.649080e+00	1.629137e+00	1.629141e+00	1.611956e+00	1.611954e+00	1.598607e+00	1.598588e+00	1.586192e+00	1.586179e+00	1.577263e+00	1.577295e+00	1.569412e+00	1.569345e+00	1.568651e+00	1.568627e+00	1.573250e+00	1.573290e+00	1.724486e+00	1.724509e+00	1.723458e+00	1.723452e+00	1.715491e+00	1.715514e+00	1.717553e+00	1.717522e+00	1.707675e+00	1.707701e+00	1.706928e+00	1.706908e+00	1.698430e+00	1.698454e+00	1.694848e+00	1.694838e+00	1.683630e+00	1.683650e+00	1.670429e+00	1.670412e+00	1.650463e+00	1.650456e+00	1.630775e+00	1.630771e+00	1.613803e+00	1.613807e+00	1.600592e+00	1.600596e+00	1.588225e+00	1.588234e+00	1.579871e+00	1.579885e+00	1.570789e+00	1.570843e+00	1.571287e+00	1.571256e+00	1.575649e+00	1.575635e+00	1.724303e+00	1.724302e+00	1.723086e+00	1.723083e+00	1.715440e+00	1.715414e+00	1.717210e+00	1.717204e+00	1.707641e+00	1.707666e+00	1.706926e+00	1.706882e+00	1.698608e+00	1.698611e+00	1.695075e+00	1.695070e+00	1.684214e+00	1.684233e+00	1.671459e+00	1.671438e+00	1.652012e+00	1.652017e+00	1.632818e+00	1.632825e+00	1.616193e+00	1.616196e+00	1.603148e+00	1.603132e+00	1.590959e+00	1.590955e+00	1.582438e+00	1.582462e+00	1.573844e+00	1.573803e+00	1.573728e+00	1.573696e+00	1.577883e+00	1.577918e+00	1.724390e+00	1.724416e+00	1.722928e+00	1.722923e+00	1.715705e+00	1.715734e+00	1.717037e+00	1.717006e+00	1.707858e+00	1.707881e+00	1.707105e+00	1.707090e+00	1.698915e+00	1.698940e+00	1.695287e+00	1.695278e+00	1.684706e+00	1.684725e+00	1.672349e+00	1.672332e+00	1.653282e+00	1.653273e+00	1.634524e+00	1.634517e+00	1.618219e+00	1.618222e+00	1.605297e+00	1.605308e+00	1.593336e+00	1.593345e+00	1.584567e+00	1.584581e+00	1.576576e+00	1.576646e+00	1.575757e+00	1.575730e+00	1.579745e+00	1.579721e+00	1.723867e+00	1.723870e+00	1.722856e+00	1.722847e+00	1.715031e+00	1.715015e+00	1.717171e+00	1.717160e+00	1.707608e+00	1.707637e+00	1.706841e+00	1.706800e+00	1.698868e+00	1.698873e+00	1.695644e+00	1.695636e+00	1.685257e+00	1.685274e+00	1.673166e+00	1.673148e+00	1.654751e+00	1.654755e+00	1.636257e+00	1.636268e+00	1.620193e+00	1.620199e+00	1.607361e+00	1.607350e+00	1.595506e+00	1.595509e+00	1.587214e+00	1.587233e+00	1.578205e+00	1.578182e+00	1.578357e+00	1.578317e+00	1.582287e+00	1.582319e+00	1.724366e+00	1.724396e+00	1.722387e+00	1.722382e+00	1.715996e+00	1.716033e+00	1.716468e+00	1.716441e+00	1.708081e+00	1.708101e+00	1.707207e+00	1.707197e+00	1.699354e+00	1.699380e+00	1.695605e+00	1.695597e+00	1.685647e+00	1.685665e+00	1.674017e+00	1.674002e+00	1.655805e+00	1.655794e+00	1.637910e+00	1.637900e+00	1.622286e+00	1.622289e+00	1.609563e+00	1.609583e+00	1.598132e+00	1.598143e+00	1.588834e+00	1.588846e+00	1.582177e+00	1.582268e+00	1.579821e+00	1.579797e+00	1.583648e+00	1.583607e+00	1.723484e+00	1.723492e+00	1.722597e+00	1.722583e+00	1.714696e+00	1.714686e+00	1.717039e+00	1.717021e+00	1.707614e+00	1.707644e+00	1.706700e+00	1.706663e+00	1.699093e+00	1.699099e+00	1.696052e+00	1.696043e+00	1.686125e+00	1.686141e+00	1.674585e+00	1.674569e+00	1.657146e+00	1.657150e+00	1.639305e+00	1.639320e+00	1.623816e+00	1.623825e+00	1.611143e+00	1.611133e+00	1.599746e+00	1.599755e+00	1.591609e+00	1.591621e+00	1.582446e+00	1.582437e+00	1.582656e+00	1.582608e+00	1.586592e+00	1.586621e+00	1.724422e+00	1.724459e+00	1.721827e+00	1.721821e+00	1.716361e+00	1.716408e+00	1.715838e+00	1.715817e+00	1.708294e+00	1.708312e+00	1.707180e+00	1.707175e+00	1.699666e+00	1.699690e+00	1.695729e+00	1.695723e+00	1.686334e+00	1.686351e+00	1.675279e+00	1.675266e+00	1.657847e+00	1.657832e+00	1.640730e+00	1.640716e+00	1.625828e+00	1.625832e+00	1.613222e+00	1.613253e+00	1.602506e+00	1.602522e+00	1.592584e+00	1.592593e+00	1.587624e+00	1.587744e+00	1.583508e+00	1.583487e+00	1.587412e+00	1.587347e+00	1.723136e+00	1.723146e+00	1.722326e+00	1.722307e+00	1.714420e+00	1.714417e+00	1.716818e+00	1.716793e+00	1.707636e+00	1.707666e+00	1.706499e+00	1.706465e+00	1.699243e+00	1.699249e+00	1.696219e+00	1.696210e+00	1.686678e+00	1.686693e+00	1.675556e+00	1.675541e+00	1.658990e+00	1.658993e+00	1.641780e+00	1.641797e+00	1.626901e+00	1.626913e+00	1.614389e+00	1.614378e+00	1.603618e+00	1.603631e+00	1.595651e+00	1.595655e+00	1.586590e+00	1.586588e+00	1.586783e+00	1.586726e+00	1.590966e+00	1.590993e+00	1.724573e+00	1.724623e+00	1.721259e+00	1.721250e+00	1.716740e+00	1.716795e+00	1.715149e+00	1.715137e+00	1.708418e+00	1.708433e+00	1.706948e+00	1.706944e+00	1.699712e+00	1.699733e+00	1.695597e+00	1.695594e+00	1.686622e+00	1.686639e+00	1.675893e+00	1.675882e+00	1.659134e+00	1.659119e+00	1.642659e+00	1.642637e+00	1.628518e+00	1.628526e+00	1.615967e+00	1.616009e+00	1.606217e+00	1.606237e+00	1.595663e+00	1.595666e+00	1.592884e+00	1.593039e+00	1.586867e+00	1.586849e+00	1.591200e+00	1.591099e+00	1.723013e+00	1.723022e+00	1.722003e+00	1.721986e+00	1.714517e+00	1.714518e+00	1.716473e+00	1.716451e+00	1.707714e+00	1.707741e+00	1.706339e+00	1.706311e+00	1.699341e+00	1.699349e+00	1.695980e+00	1.695974e+00	1.686688e+00	1.686703e+00	1.675844e+00	1.675828e+00	1.659860e+00	1.659861e+00	1.643370e+00	1.643383e+00	1.629230e+00	1.629241e+00	1.617003e+00	1.616999e+00	1.607158e+00	1.607171e+00	1.599138e+00	1.599150e+00	1.591214e+00	1.591223e+00	1.590920e+00	1.590875e+00	1.595423e+00	1.595447e+00	1.724319e+00	1.724368e+00	1.721212e+00	1.721201e+00	1.716033e+00	1.716053e+00	1.715105e+00	1.715091e+00	1.708228e+00	1.708245e+00	1.706435e+00	1.706419