# vtk DataFile Version 3.0
vtk output
ASCII
DATASET UNSTRUCTURED_GRID
POINTS 7320 double
-2.592569e-03	2.970789e-01	3.995579e-02	-2.612981e-03	2.994179e-01	3.787578e-02	-2.613264e-03	2.994504e-01	4.032556e-02	-2.430643e-03	2.785241e-01	1.424866e-01	-2.408275e-03	2.759610e-01	1.433923e-01	-2.415294e-03	2.767652e-01	1.409160e-01	-2.431570e-03	2.786304e-01	-5.744083e-02	-2.435098e-03	2.790346e-01	-5.292723e-02	-2.390846e-03	2.739638e-01	-5.364108e-02	-2.619072e-03	3.001159e-01	1.929855e-01	-2.574614e-03	2.950216e-01	1.951488e-01	-2.589762e-03	2.967573e-01	1.907359e-01	-2.508240e-03	2.874159e-01	1.404028e-01	-2.504489e-03	2.869861e-01	1.379882e-01	-2.527653e-03	2.896404e-01	1.388520e-01	-2.417099e-03	2.769722e-01	1.260660e-01	-2.435844e-03	2.791201e-01	1.245285e-01	-2.435537e-03	2.790849e-01	1.266961e-01	-2.702349e-03	3.096585e-01	-2.174853e-02	-2.668528e-03	3.057830e-01	-2.033192e-02	-2.669346e-03	3.058767e-01	-2.387756e-02	-2.502083e-03	2.867103e-01	1.160270e-01	-2.499760e-03	2.864442e-01	1.135732e-01	-2.515210e-03	2.882145e-01	1.143447e-01	-2.590061e-03	2.967916e-01	3.746793e-02	-2.515747e-03	2.882760e-01	3.500589e-02	-2.497470e-03	2.861817e-01	3.704551e-02	-2.494701e-03	2.858644e-01	3.449692e-02	-2.518740e-03	2.886191e-01	3.703801e-02	-2.299541e-03	2.635013e-01	9.209742e-02	-2.286583e-03	2.620165e-01	9.036667e-02	-2.302288e-03	2.638161e-01	8.960643e-02	-2.707648e-03	3.102658e-01	6.066785e-02	-2.707580e-03	3.102580e-01	5.793580e-02	-2.725614e-03	3.123244e-01	5.901902e-02	-2.385182e-03	2.733148e-01	8.087649e-02	-2.385170e-03	2.733135e-01	8.305544e-02	-2.367534e-03	2.712925e-01	8.176653e-02	-2.615260e-03	2.996791e-01	1.974825e-01	-2.484161e-03	2.846566e-01	1.148764e-01	-2.455150e-03	2.813324e-01	8.998562e-02	-2.435857e-03	2.791215e-01	8.905611e-02	-2.452619e-03	2.810423e-01	8.778066e-02	-2.316776e-03	2.654762e-01	9.092013e-02	-2.714410e-03	3.110405e-01	-3.915766e-03	-2.688950e-03	3.081231e-01	-2.973186e-03	-2.689593e-03	3.081969e-01	-5.770100e-03	-2.416936e-03	2.769534e-01	1.236244e-01	-2.703925e-03	3.098391e-01	1.503929e-01	-2.718366e-03	3.114939e-01	1.520631e-01	-2.691784e-03	3.084479e-01	1.524127e-01	-2.768642e-03	3.172549e-01	5.186617e-02	-2.744890e-03	3.145333e-01	5.302243e-02	-2.744457e-03	3.144836e-01	5.059257e-02	-2.763208e-03	3.166322e-01	5.687103e-02	-2.744419e-03	3.144793e-01	5.550356e-02	-2.764951e-03	3.168320e-01	5.453485e-02	-2.519134e-03	2.886642e-01	1.364154e-01	-2.715626e-03	3.111799e-01	1.565453e-01	-2.739694e-03	3.139378e-01	1.557180e-01	-2.738444e-03	3.137946e-01	1.584195e-01	-2.783006e-03	3.189009e-01	5.592703e-02	-2.313069e-03	2.650515e-01	6.083088e-02	-2.332012e-03	2.672221e-01	5.926332e-02	-2.332926e-03	2.673269e-01	6.154218e-02	-2.436375e-03	2.791810e-01	1.223614e-01	-2.241488e-03	2.568491e-01	9.768593e-02	-2.240924e-03	2.567844e-01	9.556838e-02	-2.256231e-03	2.585384e-01	9.645093e-02	-2.817315e-03	3.228323e-01	9.514932e-02	-2.836124e-03	3.249876e-01	9.409332e-02	-2.836124e-03	3.249876e-01	9.608135e-02	-2.221072e-03	2.545097e-01	6.866996e-02	-2.201641e-03	2.522831e-01	6.754647e-02	-2.221324e-03	2.545385e-01	6.637513e-02	-2.536460e-03	2.906495e-01	2.557710e-02	-2.537217e-03	2.907363e-01	2.811546e-02	-2.513430e-03	2.880105e-01	2.627378e-02	-2.268802e-03	2.599790e-01	-1.640745e-02	-2.249752e-03	2.577961e-01	-1.433523e-02	-2.236170e-03	2.562398e-01	-1.729909e-02	-2.608794e-03	2.989382e-01	3.535899e-02	-2.224488e-03	2.549011e-01	9.438984e-02	-2.226135e-03	2.550899e-01	9.702124e-02	-2.428946e-03	2.783297e-01	1.449760e-01	-2.434033e-03	2.789125e-01	8.655067e-02	-2.602685e-03	2.982382e-01	1.500638e-01	-2.585854e-03	2.963095e-01	1.475537e-01	-2.607657e-03	2.988079e-01	1.474366e-01	-2.800216e-03	3.208730e-01	1.222272e-01	-2.820510e-03	3.231985e-01	1.229563e-01	-2.801002e-03	3.209630e-01	1.243863e-01	-2.268483e-03	2.599424e-01	1.403557e-01	-2.283201e-03	2.616289e-01	1.417026e-01	-2.265413e-03	2.595906e-01	1.428172e-01	-2.448355e-03	2.805537e-01	1.463643e-01	-2.428380e-03	2.782648e-01	1.476044e-01	-2.319805e-03	2.658233e-01	1.801900e-01	-2.285733e-03	2.619191e-01	1.819993e-01	-2.294135e-03	2.628818e-01	1.776359e-01	-2.685824e-03	3.077650e-01	-8.776101e-02	-2.735045e-03	3.134052e-01	-9.347298e-02	-2.737016e-03	3.136309e-01	-8.536906e-02	-2.211045e-03	2.533607e-01	9.595235e-02	-2.585683e-03	2.962900e-01	3.504801e-02	-2.818179e-03	3.229313e-01	9.313123e-02	-2.549142e-03	2.921027e-01	-7.280078e-03	-2.551047e-03	2.923210e-01	-4.546134e-03	-2.525786e-03	2.894264e-01	-5.143334e-03	-2.715387e-03	3.111525e-01	1.596934e-01	-2.320372e-03	2.658883e-01	1.760337e-01	-2.351839e-03	2.694940e-01	1.780130e-01	-2.784913e-03	3.191194e-01	1.233586e-01	-2.780641e-03	3.186299e-01	1.210730e-01	-2.754005e-03	3.155777e-01	1.230034e-01	-2.736015e-03	3.135162e-01	1.241948e-01	-2.735518e-03	3.134593e-01	1.221356e-01	-2.687330e-03	3.079375e-01	5.950571e-02	-2.252921e-03	2.581592e-01	1.411484e-01	-2.343648e-03	2.685555e-01	1.740199e-01	-2.393081e-03	2.742200e-01	-1.852077e-02	-2.391239e-03	2.740088e-01	-2.262957e-02	-2.419984e-03	2.773027e-01	-2.115508e-02	-2.377466e-03	2.724306e-01	-6.205154e-02	-2.352292e-03	2.695460e-01	-5.683883e-02	-2.338783e-03	2.679980e-01	-6.241998e-02	-2.487182e-03	2.850028e-01	1.416102e-01	-2.486351e-03	2.849076e-01	1.392188e-01	-2.836124e-03	3.249876e-01	9.208591e-02	-2.572682e-03	2.948001e-01	-3.808269e-02	-2.540507e-03	2.911133e-01	-4.085864e-02	-2.576220e-03	2.952056e-01	-4.289531e-02	-2.708274e-03	3.103374e-01	1.541555e-01	-2.442859e-03	2.799239e-01	9.121563e-02	-2.513423e-03	2.880098e-01	2.379755e-02	-2.312254e-03	2.649581e-01	5.816838e-02	-2.292146e-03	2.626539e-01	5.944640e-02	-2.292334e-03	2.626754e-01	5.708176e-02	-2.395108e-03	2.744522e-01	-5.876939e-02	-2.202306e-03	2.523593e-01	6.526486e-02	-2.181896e-03	2.500205e-01	6.641462e-02	-2.181896e-03	2.500205e-01	6.413737e-02	-2.433512e-03	2.788529e-01	1.675381e-02	-2.454281e-03	2.812327e-01	1.767744e-02	-2.433108e-03	2.788065e-01	1.919254e-02	-2.366799e-03	2.712083e-01	8.383953e-02	-2.516000e-03	2.883050e-01	2.868929e-02	-2.385975e-03	2.734057e-01	7.655355e-02	-2.385703e-03	2.733745e-01	7.872173e-02	-2.367983e-03	2.713440e-01	7.743227e-02	-2.599506e-03	2.978738e-01	8.070027e-02	-2.616280e-03	2.997960e-01	8.211437e-02	-2.598515e-03	2.977604e-01	8.275557e-02	-2.582076e-03	2.958766e-01	1.499947e-01	-2.663879e-03	3.052503e-01	1.460304e-01	-2.662539e-03	3.050967e-01	1.437016e-01	-2.682365e-03	3.073686e-01	1.443597e-01	-2.316660e-03	2.654629e-01	-5.732442e-02	-2.535896e-03	2.905849e-01	2.307843e-02	-2.798472e-03	3.206731e-01	1.201837e-01	-2.574363e-03	2.949928e-01	1.688667e-01	-2.597774e-03	2.976755e-01	1.712411e-01	-2.568618e-03	2.943345e-01	1.734084e-01	-2.621294e-03	3.003705e-01	-7.246531e-03	-2.622268e-03	3.004821e-01	-4.415004e-03	-2.597552e-03	2.976500e-01	-4.698087e-03	-2.243192e-03	2.570444e-01	-3.221472e-02	-2.246069e-03	2.573740e-01	-3.614252e-02	-2.277413e-03	2.609657e-01	-3.321914e-02	-2.509286e-03	2.875357e-01	1.451898e-01	-2.488101e-03	2.851081e-01	1.464316e-01	-2.487928e-03	2.850883e-01	1.440069e-01	-2.353378e-03	2.696704e-01	1.190356e-01	-2.351788e-03	2.694882e-01	1.210806e-01	-2.335895e-03	2.676671e-01	1.195274e-01	-2.810660e-03	3.220698e-01	-1.584915e-02	-2.811487e-03	3.221645e-01	-1.256496e-02	-2.782934e-03	3.188926e-01	-1.358680e-02	-2.536367e-03	2.906389e-01	-3.668483e-02	-2.571939e-03	2.947150e-01	-3.315193e-02	-2.535342e-03	2.905214e-01	-3.252155e-02	-2.801574e-03	3.210285e-01	1.264031e-01	-2.818657e-03	3.229861e-01	1.271477e-01	-2.802103e-03	3.210892e-01	1.283774e-01	-2.281584e-03	2.614436e-01	1.441388e-01	-2.258450e-03	2.587927e-01	1.450160e-01	-2.409267e-03	2.760747e-01	1.866175e-01	-2.426404e-03	2.780383e-01	1.901378e-01	-2.381414e-03	2.728830e-01	1.890721e-01	-2.312076e-03	2.649376e-01	2.116924e-01	-2.264150e-03	2.594459e-01	2.148102e-01	-2.274277e-03	2.606064e-01	2.091151e-01	-2.800998e-03	3.209625e-01	9.215317e-02	-2.801489e-03	3.210189e-01	9.011766e-02	-2.819250e-03	3.230541e-01	9.109318e-02	-2.585137e-03	2.962273e-01	1.523119e-01	-2.311980e-03	2.649266e-01	5.582493e-02	-2.331346e-03	2.671458e-01	5.458219e-02	-2.332010e-03	2.672218e-01	5.690274e-02	-2.763003e-03	3.166087e-01	5.912986e-02	-2.781874e-03	3.187712e-01	6.039726e-02	-2.762317e-03	3.165302e-01	6.130122e-02	-2.216579e-03	2.539948e-01	1.867995e-01	-2.213281e-03	2.536169e-01	1.826394e-01	-2.248748e-03	2.576810e-01	1.841036e-01	-2.200663e-03	2.521710e-01	7.012087e-02	-2.181896e-03	2.500205e-01	7.090337e-02	-2.181896e-03	2.500205e-01	6.866988e-02	-2.453732e-03	2.811699e-01	1.996161e-02	-2.418245e-03	2.771034e-01	1.214452e-01	-2.556826e-03	2.929833e-01	-5.018218e-02	-2.543925e-03	2.915049e-01	-4.562809e-02	-2.511268e-03	2.877628e-01	-4.821013e-02	-2.242059e-03	2.569145e-01	1.738795e-01	-2.213088e-03	2.535948e-01	1.710724e-01	-2.242593e-03	2.569758e-01	1.704493e-01	-2.407186e-03	2.758362e-01	1.461285e-01	-2.387026e-03	2.735261e-01	1.474237e-01	-2.387122e-03	2.735371e-01	1.449195e-01	-2.482078e-03	2.844180e-01	2.104004e-01	-2.458365e-03	2.817008e-01	2.150506e-01	-2.430883e-03	2.785516e-01	2.099440e-01	-2.337027e-03	2.677968e-01	1.382431e-01	-2.317795e-03	2.655930e-01	1.396688e-01	-2.317335e-03	2.655403e-01	1.374821e-01	-2.726731e-03	3.124525e-01	6.123273e-02	-2.352419e-03	2.695605e-01	1.910667e-01	-2.393133e-03	2.742259e-01	1.928987e-01	-2.513301e-03	2.879958e-01	2.127151e-02	-2.713624e-03	3.109505e-01	-6.521593e-03	-2.436366e-03	2.791799e-01	1.202670e-01	-2.419129e-03	2.772047e-01	1.193879e-01	-2.437134e-03	2.792678e-01	1.181035e-01	-2.782603e-03	3.188547e-01	5.822430e-02	-2.514329e-03	2.881135e-01	-5.314074e-02	-2.763975e-03	3.167202e-01	1.973008e-01	-2.722610e-03	3.119801e-01	1.953076e-01	-2.752573e-03	3.154137e-01	1.925738e-01	-2.448844e-03	2.806097e-01	1.438381e-01	-2.527274e-03	2.895969e-01	1.415131e-01	-2.527876e-03	2.896659e-01	1.439478e-01	-2.505699e-03	2.871246e-01	1.428740e-01	-2.677312e-03	3.067896e-01	-5.282354e-02	-2.634933e-03	3.019334e-01	-5.090734e-02	-2.637268e-03	3.022009e-01	-5.559027e-02	-2.780244e-03	3.185845e-01	1.759657e-01	-2.747786e-03	3.148651
[...]
POINT_DATA 7320

SCALARS Density double 1
LOOKUP_TABLE default
1.255888e+00	1.255933e+00	1.255884e+00	1.255657e+00	1.255655e+00	1.255656e+00	1.256895e+00	1.256895e+00	1.256896e+00	1.255682e+00	1.255676e+00	1.255678e+00	1.255663e+00	1.255663e+00	1.255667e+00	1.255656e+00	1.255657e+00	1.255657e+00	1.256889e+00	1.256890e+00	1.256889e+00	1.255662e+00	1.255662e+00	1.255665e+00	1.255940e+00	1.255975e+00	1.255928e+00	1.255983e+00	1.255935e+00	1.255634e+00	1.255632e+00	1.255634e+00	1.255697e+00	1.255698e+00	1.255697e+00	1.255649e+00	1.255649e+00	1.255645e+00	1.255681e+00	1.255659e+00	1.255657e+00	1.255656e+00	1.255657e+00	1.255636e+00	1.256890e+00	1.256867e+00	1.256884e+00	1.255656e+00	1.255687e+00	1.255688e+00	1.255686e+00	1.255695e+00	1.255713e+00	1.255697e+00	1.255699e+00	1.255700e+00	1.255705e+00	1.255665e+00	1.255687e+00	1.255689e+00	1.255689e+00	1.255706e+00	1.255629e+00	1.255631e+00	1.255633e+00	1.255657e+00	1.255628e+00	1.255627e+00	1.255629e+00	1.255704e+00	1.255708e+00	1.255708e+00	1.255619e+00	1.255616e+00	1.255618e+00	1.256189e+00	1.256132e+00	1.256168e+00	1.256903e+00	1.256907e+00	1.256904e+00	1.255986e+00	1.255625e+00	1.255626e+00	1.255657e+00	1.255656e+00	1.255681e+00	1.255678e+00	1.255682e+00	1.255698e+00	1.255702e+00	1.255698e+00	1.255632e+00	1.255634e+00	1.255632e+00	1.255658e+00	1.255657e+00	1.255639e+00	1.255634e+00	1.255636e+00	1.256894e+00	1.256894e+00	1.256894e+00	1.255624e+00	1.255989e+00	1.255704e+00	1.256884e+00	1.256900e+00	1.256905e+00	1.255688e+00	1.255640e+00	1.255645e+00	1.255695e+00	1.255694e+00	1.255691e+00	1.255689e+00	1.255689e+00	1.255694e+00	1.255631e+00	1.255643e+00	1.256901e+00	1.256899e+00	1.256898e+00	1.256895e+00	1.256896e+00	1.256896e+00	1.255660e+00	1.255660e+00	1.255708e+00	1.256894e+00	1.256894e+00	1.256894e+00	1.255687e+00	1.255657e+00	1.256224e+00	1.255628e+00	1.255623e+00	1.255623e+00	1.256895e+00	1.255615e+00	1.255613e+00	1.255612e+00	1.256391e+00	1.256368e+00	1.256331e+00	1.255645e+00	1.256113e+00	1.255648e+00	1.255649e+00	1.255644e+00	1.255683e+00	1.255685e+00	1.255682e+00	1.255677e+00	1.255685e+00	1.255685e+00	1.255686e+00	1.256896e+00	1.256247e+00	1.255698e+00	1.255676e+00	1.255679e+00	1.255675e+00	1.256880e+00	1.256894e+00	1.256894e+00	1.256900e+00	1.256899e+00	1.256899e+00	1.255664e+00	1.255660e+00	1.255661e+00	1.255645e+00	1.255644e+00	1.255641e+00	1.256886e+00	1.256883e+00	1.256882e+00	1.256894e+00	1.256893e+00	1.256894e+00	1.255699e+00	1.255702e+00	1.255698e+00	1.255634e+00	1.255631e+00	1.255654e+00	1.255656e+00	1.255651e+00	1.255639e+00	1.255632e+00	1.255633e+00	1.255701e+00	1.255701e+00	1.255704e+00	1.255678e+00	1.255626e+00	1.255625e+00	1.255631e+00	1.255701e+00	1.255703e+00	1.255699e+00	1.255627e+00	1.255627e+00	1.255630e+00	1.255617e+00	1.255615e+00	1.255614e+00	1.256311e+00	1.255656e+00	1.256894e+00	1.256894e+00	1.256895e+00	1.255630e+00	1.255626e+00	1.255630e+00	1.255655e+00	1.255652e+00	1.255652e+00	1.255661e+00	1.255658e+00	1.255656e+00	1.255642e+00	1.255639e+00	1.255639e+00	1.255698e+00	1.255646e+00	1.255652e+00	1.256283e+00	1.256876e+00	1.255657e+00	1.255656e+00	1.255657e+00	1.255703e+00	1.256895e+00	1.255691e+00	1.255687e+00	1.255690e+00	1.255657e+00	1.255667e+00	1.255667e+00	1.255663e+00	1.256893e+00	1.256893e+00	1.256894e+00	1.255694e+00	1.255690e+00	1.255691e+00	1.256077e+00	1.256060e+00	1.256892e+00	1.256903e+00	1.255681e+00	1.255686e+00	1.255702e+00	1.256888e+00	1.255819e+00	1.255861e+00	1.255842e+00	1.255662e+00	1.255659e+00	1.255659e+00	1.256886e+00	1.255692e+00	1.255693e+00	1.255691e+00	1.255617e+00	1.255617e+00	1.255619e+00	1.255657e+00	1.255657e+00	1.255657e+00	1.255629e+00	1.256893e+00	1.255633e+00	1.255685e+00	1.255686e+00	1.255686e+00	1.255696e+00	1.255693e+00	1.255699e+00	1.255699e+00	1.255702e+00	1.255698e+00	1.255644e+00	1.255618e+00	1.255621e+00	1.255619e+00	1.256266e+00	1.256252e+00	1.256862e+00	1.256880e+00	1.256882e+00	1.255648e+00	1.255648e+00	1.255643e+00	1.255678e+00	1.255674e+00	1.255679e+00	1.255633e+00	1.255649e+00	1.255644e+00	1.255718e+00	1.255888e+00	1.255702e+00	1.255662e+00	1.255660e+00	1.255659e+00	1.255656e+00	1.255656e+00	1.255656e+00	1.255705e+00	1.255708e+00	1.255708e+00	1.255626e+00	1.255699e+00	1.255645e+00	1.255659e+00	1.255657e+00	1.255688e+00	1.255687e+00	1.255691e+00	1.255662e+00	1.255656e+00	1.255657e+00	1.255658e+00	1.255702e+00	1.255693e+00	1.255693e+00	1.255697e+00	1.255643e+00	1.255639e+00	1.255639e+00	1.256894e+00	1.255701e+00	1.255671e+00	1.255656e+00	1.256305e+00	1.255636e+00	1.255633e+00	1.255635e+00	1.255629e+00	1.255633e+00	1.256187e+00	1.256164e+00	1.256130e+00	1.256901e+00	1.255656e+00	1.255674e+00	1.255675e+00	1.255680e+00	1.255636e+00	1.255636e+00	1.255705e+00	1.255669e+00	1.255668e+00	1.255665e+00	1.255693e+00	1.255693e+00	1.255691e+00	1.255638e+00	1.255635e+00	1.255637e+00	1.256912e+00	1.256910e+00	1.256904e+00	1.255698e+00	1.255702e+00	1.255699e+00	1.255664e+00	1.255703e+00	1.255702e+00	1.255635e+00	1.255656e+00	1.255623e+00	1.255702e+00	1.256908e+00	1.255610e+00	1.256901e+00	1.256904e+00	1.255692e+00	1.255691e+00	1.255694e+00	1.255692e+00	1.255688e+00	1.255688e+00	1.255709e+00	1.255686e+00	1.255685e+00	1.255684e+00	1.255693e+00	1.255648e+00	1.255685e+00	1.255680e+00	1.255680e+00	1.255676e+00	1.255701e+00	1.255699e+00	1.255696e+00	1.255698e+00	1.255706e+00	1.255668e+00	1.255664e+00	1.255690e+00	1.256890e+00	1.256887e+00	1.255702e+00	1.255691e+00	1.255793e+00	1.255793e+00	1.255749e+00	1.255701e+00	1.255697e+00	1.255701e+00	1.255689e+00	1.255687e+00	1.255689e+00	1.255704e+00	1.255614e+00	1.256885e+00	1.255641e+00	1.256894e+00	1.255644e+00	1.255690e+00	1.255696e+00	1.255690e+00	1.255623e+00	1.255623e+00	1.255625e+00	1.256894e+00	1.256894e+00	1.256894e+00	1.255624e+00	1.255623e+00	1.255625e+00	1.255698e+00	1.255684e+00	1.255684e+00	1.255682e+00	1.255688e+00	1.255687e+00	1.255687e+00	1.255635e+00	1.255633e+00	1.255686e+00	1.255682e+00	1.255846e+00	1.255878e+00	1.255904e+00	1.255632e+00	1.255633e+00	1.255636e+00	1.255633e+00	1.255647e+00	1.255648e+00	1.255642e+00	1.255625e+00	1.255636e+00	1.255634e+00	1.255636e+00	1.255625e+00	1.255624e+00	1.255635e+00	1.255633e+00	1.255634e+00	1.256897e+00	1.256897e+00	1.256898e+00	1.255694e+00	1.255693e+00	1.255695e+00	1.256431e+00	1.255701e+00	1.255702e+00	1.255705e+00	1.255699e+00	1.255632e+00	1.256154e+00	1.255633e+00	1.256890e+00	1.256888e+00	1.255693e+00	1.255692e+00	1.255691e+00	1.255695e+00	1.255694e+00	1.256902e+00	1.256884e+00	1.255874e+00	1.256894e+00	1.256888e+00	1.256883e+00	1.255657e+00	1.255657e+00	1.255624e+00	1.255626e+00	1.255626e+00	1.255686e+00	1.255624e+00	1.255681e+00	1.255641e+00	1.255641e+00	1.255656e+00	1.256523e+00	1.256501e+00	1.256455e+00	1.255614e+00	1.255637e+00	1.256895e+00	1.255686e+00	1.255687e+00	1.255693e+00	1.255695e+00	1.255693e+00	1.255729e+00	1.255744e+00	1.255635e+00	1.255656e+00	1.255657e+00	1.255656e+00	1.255643e+00	1.255641e+00	1.255644e+00	1.255657e+00	1.255692e+00	1.255691e+00	1.255621e+00	1.255621e+00	1.255623e+00	1.256898e+00	1.255692e+00	1.255692e+00	1.255694e+00	1.255654e+00	1.255657e+00	1.255694e+00	1.255654e+00	1.255652e+00	1.255651e+00	1.255648e+00	1.255655e+00	1.255636e+00	1.256883e+00	1.255695e+00	1.255697e+00	1.255686e+00	1.255687e+00	1.256887e+00	1.255653e+00	1.255650e+00	1.255654e+00	1.255623e+00	1.255682e+00	1.255683e+00	1.255686e+00	1.255647e+00	1.255706e+00	1.255706e+00	1.255641e+00	1.255656e+00	1.256905e+00	1.255636e+00	1.255633e+00	1.255635e+00	1.255734e+00	1.255706e+00	1.255690e+00	1.255766e+00	1.255784e+00	1.255640e+00	1.255640e+00	1.256333e+00	1.256395e+00	1.256366e+00	1.255641e+00	1.256341e+00	1.256403e+00	1.256364e+00	1.255632e+00	1.256895e+00	1.255669e+00	1.255668e+00	1.255665e+00	1.256573e+00	1.255656e+00	1.255656e+00	1.255656e+00	1.255706e+00	1.255709e+00	1.255709e+00	1.256364e+00	1.255686e+00	1.255686e+00	1.256889e+00	1.256890e+00	1.256890e+00	1.255913e+00	1.255965e+00	1.255940e+00	1.255642e+00	1.255647e+00	1.255684e+00	1.255684e+00	1.255683e+00	1.255687e+00	1.255642e+00	1.255642e+00	1.255639e+00	1.255643e+00	1.255654e+00	1.255654e+00	1.255676e+00	1.255665e+00	1.255683e+00	1.255790e+00	1.256894e+00	1.256896e+00	1.256896e+00	1.256897e+00	1.255655e+00	1.255937e+00	1.256330e+00	1.256364e+00	1.256302e+00	1.256243e+00	1.256210e+00	1.256892e+00	1.255615e+00	1.255617e+00	1.255697e+00	1.255695e+00	1.255694e+00	1.255696e+00	1.255622e+00	1.255623e+00	1.255654e+00	1.256265e+00	1.255656e+00	1.255652e+00	1.255694e+00	1.255692e+00	1.256084e+00	1.256139e+00	1.255697e+00	1.255700e+00	1.255694e+00	1.255642e+00	1.255646e+00	1.255647e+00	1.255641e+00	1.255685e+00	1.256895e+00	1.256895e+00	1.256895e+00	1.256892e+00	1.256892e+00	1.256892e+00	1.255662e+00	1.255662e+00	1.255667e+00	1.255706e+00	1.255694e+00	1.255663e+00	1.256427e+00	1.255702e+00	1.255699e+00	1.255694e+00	1.255837e+00	1.256880e+00	1.256733e+00	1.256804e+00	1.256340e+00	1.256280e+00	1.255724e+00	1.256899e+00	1.256903e+00	1.256905e+00	1.256907e+00	1.255691e+00	1.255656e+00	1.256593e+00	1.256810e+00	1.255624e+00	1.255626e+00	1.255626e+00	1.255710e+00	1.255624e+00	1.255693e+00	1.256903e+00	1.255815e+00	1.255849e+00	1.255791e+00	1.255629e+00	1.255640e+00	1.255639e+00	1.255689e+00	1.255658e+00	1.256005e+00	1.255979e+00	1.255949e+00	1.256119e+00	1.256092e+00	1.256061e+00	1.255654e+00	1.255656e+00	1.255654e+00	1.255694e+00	1.255613e+00	1.255615e+00	1.255613e+00	1.255642e+00	1.255647e+00	1.256892e+00	1.256150e+00	1.256181e+00	1.256123e+00	1.255689e+00	1.255689e+00	1.255623e+00	1.255623e+00	1.256890e+00	1.256891e+00	1.255744e+00	1.256919e+00	1.256879e+00	1.256909e+00	1.256892e+00	1.256890e+00	1.256892e+00	1.255628e+00	1.255626e+00	1.255626e+00	1.256874e+00	1.256888e+00	1.256238e+00	1.256300e+00	1.256270e+00	1.255634e+00	1.255633e+00	1.255634e+00	1.255626e+00	1.255627e+00	1.255625e+00	1.255689e+00	1.255689e+00	1.255694e+00	1.255694e+00	1.255695e+00	1.255950e+00	1.255904e+00	1.255921e+00	1.256896e+00	1.256895e+00	1.256896e+00	1.255699e+00	1.255693e+00	1.255698e+00	1.255630e+00	1.255670e+00	1.255970e+00	1.255697e+00	1.255659e+00	1.255695e+00	1.255617e+00	1.255978e+00	1.255951e+00	1.255926e+00	1.255644e+00	1.255644e+00	1.255641e+00	1.255840e+00	1.255869e+00	1.255659e+00	1.255631e+00	1.255657e+00	1.255657e+00	1.255645e+00	1.255645e+00	1.255629e+00	1.256039e+00	1.256031e+00	1.255634e+00	1.255683e+00	1.256802e+00	1.256735e+00	1.255642e+00	1.255693e+00	1.255693e+00	1.255693e+00	1.255691e+00	1.255704e+00	1.255701e+00	1.255700e+00	1.255706e+00	1.255706e+00	1.255954e+00	1.255704e+00	1.255771e+00	1.255786e+00	1.256894e+00	1.255634e+00	1.255632e+00	1.255634e+00	1.255633e+00	1.256896e+00	1.256896e+00	1.255644e+00	1.256209e+00	1.255850e+00	1.255805e+00	1.255825e+00	1.255702e+00	1.255703e+00	1.255706e+00	1.256393e+00	1.256462e+00	1.256429e+00	1.256682e+00	1.256651e+00	1.256733e+00	1.255703e+00	1.256587e+00	1.256608e+00	1.255687e+00	1.255619e+00	1.255620e+00	1.255621e+00	1.255686e+00	1.255660e+00	1.256739e+00	1.255689e+00	1.255689e+00	1.255631e+00	1.256889e+00	1.255636e+00	1.255638e+00	1.255638e+00	1.256013e+00	1.255984e+00	1.256040e+00	1.255669e+00	1.255668e+00	1.255665e+00	1.255695e+00	1.255695e+00	1.255698e+00	1.255696e+00	1.255695e+00	1.255697e+00	1.256898e+00	1.255869e+00	1.256902e+00	1.256900e+00	1.256904e+00	1.255682e+00	1.255684e+00	1.255631e+00	1.255688e+00	1.255688e+00	1.255689e+00	1.255700e+00	1.255703e+00	1.255656e+00	1.255665e+00	1.255618e+00	1.256895e+00	1.256895e+00	1.256895e+00	1.255639e+00	1.255638e+00	1.256035e+00	1.256066e+00	1.256010e+00	1.255620e+00	1.255622e+00	1.255622e+00	1.256465e+00	1.255701e+00	1.255646e+00	1.255646e+00	1.255640e+00	1.255656e+00	1.255693e+00	1.255682e+00	1.255682e+00	1.256241e+00	1.255693e+00	1.255694e+00	1.255694e+00	1.255698e+00	1.255707e+00	1.255636e+00	1.255698e+00	1.255634e+00	1.255626e+00	1.255687e+00	1.255624e+00	1.256002e+00	1.255679e+00	1.255680e+00	1.255684e+00	1.255625e+00	1.255657e+00	1.255656e+00	1.255657e+00	1.256429e+00	1.256396e+00	1.256464e+00	1.256895e+00	1.255611e+00	1.255684e+00	1.256039e+00	1.256068e+00	1.256095e+00	1.255620e+00	1.256494e+00	1.255688e+00	1.256907e+00	1.256907e+00	1.256906e+00	1.255655e+00	1.255657e+00	1.255657e+00	1.255894e+00	1.255630e+00	1.255656e+00	1.255654e+00	1.256889e+00	1.255692e+00	1.255661e+00	1.255626e+00	1.256545e+00	1.255925e+00	1.256902e+00	1.255685e+00	1.255684e+00	1.255684e+00	1.255624e+00	1.255624e+00	1.255626e+00	1.255695e+00	1.255696e+00	1.255693e+00	1.255667e+00	1.255819e+00	1.255796e+00	1.255771e+00	1.256520e+00	1.255622e+00	1.255620e+00	1.256458e+00	1.256483e+00	1.255626e+00	1.256890e+00	1.255704e+00	1.255743e+00	1.255798e+00	1.255773e+00	1.255606e+00	1.255606e+00	1.255605e+00	1.256098e+00	1.256122e+00	1.255774e+00	1.255655e+00	1.255652e+00	1.255652e+00	1.255682e+00	1.255640e+00	1.255654e+00	1.255654e+00	1.255696e+00	1.256891e+00	1.256891e+00	1.256366e+00	1.256395e+00	1.256331e+00	1.255639e+00	1.255639e+00	1.256893e+00	1.256897e+00	1.256898e+00	1.255686e+00	1.255686e+00	1.255687e+00	1.255645e+00	1.255646e+00	1.255691e+00	1.255692e+00	1.255691e+00	1.256897e+00	1.255864e+00	1.255920e+00	1.255694e+00	1.256893e+00	1.255655e+00	1.255648e+00	1.255647e+00	1.255644e+00	1.256901e+00	1.256900e+00	1.256901e+00	1.256270e+00	1.256303e+00	1.255674e+00	1.255674e+00	1.255677e+00	1.255693e+00	1.255639e+00	1.255686e+00	1.255686e+00	1.255685e+00	1.256424e+00	1.255650e+00	1.256901e+00	1.256879e+00	1.255686e+00	1.255656e+00	1.255800e+00	1.255641e+00	1.255649e+00	1.255649e+00	1.255654e+00	1.255656e+00	1.255706e+00	1.255724e+00	1.255692e+00	1.255640e+00	1.255646e+00	1.255631e+00	1.255687e+00	1.256893e+00	1.256892e+00	1.255627e+00	1.256152e+00	1.256184e+00	1.256211e+00	1.255634e+00	1.255702e+00	1.255657e+00	1.255657e+00	1.255657e+00	1.255700e+00	1.255703e+00	1.255704e+00	1.255700e+00	1.256109e+00	1.256060e+00	1.256076e+00	1.256027e+00	1.256007e+00	1.255656e+00	1.255656e+00	1.255656e+00	1.255656e+00	1.255685e+00	1.256431e+00	1.256911e+00	1.256460e+00	1.255638e+00	1.255637e+00	1.256115e+00	1.256142e+00	1.256166e+00	1.255626e+00	1.255624e+00	1.255626e+00	1.256276e+00	1.256307e+00	1.255763e+00	1.255766e+00	1.255636e+00	1.255897e+00	1.256891e+00	1.255624e+00	1.256498e+00	1.256528e+00	1.255633e+00	1.255630e+00	1.255631e+00	1.256887e+00	1.255663e+00	1.255631e+00	1.255631e+00	1.256252e+00	1.255695e+00	1.255646e+00	1.255638e+00	1.256089e+00	1.255677e+00	1.255654e+00	1.255690e+00	1.255691e+00	1.255690e+00	1.256532e+00	1.256572e+00	1.256498e+00	1.256466e+00	1.256401e+00	1.256014e+00	1.256040e+00	1.255991e+00	1.255607e+00	1.255614e+00	1.255604e+00	1.255639e+00	1.255673e+00	1.255647e+00	1.255647e+00	1.255645e+00	1.255636e+00	1.255644e+00	1.255643e+00	1.255691e+00	1.255699e+00	1.256895e+00	1.255703e+00	1.255721e+00	1.255665e+00	1.255656e+00	1.255628e+00	1.255692e+00	1.255683e+00	1.255683e+00	1.255684e+00	1.255697e+00	1.255697e+00	1.255700e+00	1.255678e+00	1.256898e+00	1.255623e+00	1.255625e+00	1.255696e+00	1.255696e+00	1.255699e+00	1.256642e+00	1.255695e+00	1.255645e+00	1.255645e+00	1.255649e+00	1.255691e+00	1.255689e+00	1.255689e+00	1.255687e+00	1.255634e+00	1.255632e+00	1.255634e+00	1.255665e+00	1.255665e+00	1.255668e+00	1.255624e+00	1.255626e+00	1.255693e+00	1.255708e+00	1.255711e+00	1.255711e+00	1.255685e+00	1.255686e+00	1.255686e+00	1.256243e+00	1.255689e+00	1.255690e+00	1.255688e+00	1.255695e+00	1.256895e+00	1.255694e+00	1.255702e+00	1.255701e+00	1.256893e+00	1.256893e+00	1.256893e+00	1.255686e+00	1.255628e+00	1.255645e+00	1.255640e+00	1.255634e+00	1.255628e+00	1.255622e+00	1.256902e+00	1.256125e+00	1.256335e+00	1.256276e+00	1.255642e+00	1.255685e+00	1.256647e+00	1.256604e+00	1.256573e+00	1.256886e+00	1.255625e+00	1.255623e+00	1.255623e+00	1.255620e+00	1.256498e+00	1.255655e+00	1.255691e+00	1.255955e+00	1.255900e+00	1.256895e+00	1.255690e+00	1.255695e+00	1.255688e+00	1.255686e+00	1.256528e+00	1.255626e+00	1.255623e+00	1.255626e+00	1.256892e+00	1.256892e+00	1.256892e+00	1.256197e+00	1.256220e+00	1.255710e+00	1.256671e+00	1.255663e+00	1.255668e+00	1.255663e+00	1.255868e+00	1.255685e+00	1.255700e+00	1.255702e+00	1.255698e+00	1.255630e+00	1.255676e+00	1.255649e+00	1.255687e+00	1.255632e+00	1.256893e+00	1.256893e+00	1.256893e+00	1.255694e+00	1.255695e+00	1.255697e+00	1.255633e+00	1.255636e+00	1.255636e+00	1.255687e+00	1.255687e+00	1.255930e+00	1.255959e+00	1.255984e+00	1.255689e+00	1.255690e+00	1.255689e+00	1.256903e+00	1.255697e+00	1.255698e+00	1.255704e+00	1.255904e+00	1.256362e+00	1.255695e+00	1.255641e+00	1.255692e+00	1.255625e+00	1.255628e+00	1.256907e+00	1.256571e+00	1.256016e+00	1.255667e+00	1.255678e+00	1.255678e+00	1.255675e+00	1.255698e+00	1.255699e+00	1.255705e+00	1.255651e+00	1.255651e+00	1.255623e+00	1.256450e+00	1.256391e+00	1.256412e+00	1.255690e+00	1.255656e+00	1.256896e+00	1.256890e+00	1.256894e+00	1.255657e+00	1.255657e+00	1.255626e+00	1.255623e+00	1.255623e+00	1.256894e+00	1.255635e+00	1.255639e+00	1.256893e+00	1.256893e+00	1.256893e+00	1.256894e+00	1.256894e+00	1.256894e+00	1.255683e+00	1.255623e+00	1.255699e+00	1.255705e+00	1.255623e+00	1.255626e+00	1.256898e+00	1.256898e+00	1.256900e+00	1.256899e+00	1.255876e+00	1.256889e+00	1.256889e+00	1.255666e+00	1.256904e+00	1.256905e+00	1.256905e+00	1.256888e+00	1.256887e+00	1.255687e+00	1.256884e+00	1.255657e+00	1.255657e+00	1.256599e+00	1.255701e+00	1.255705e+00	1.255674e+00	1.255637e+00	1.255636e+00	1.255636e+00	1.256470e+00	1.256886e+00	1.255690e+00	1.255652e+00	1.255656e+00	1.255656e+00	1.255705e+00	1.255701e+00	1.256878e+00	1.255679e+00	1.256882e+00	1.255687e+00	1.255852e+00	1.255591e+00	1.255654e+00	1.255684e+00	1.255685e+00	1.255621e+00	1.255622e+00	1.255623e+00	1.255621e+00	1.255685e+00	1.255684e+00	1.255684e+00	1.255700e+00	1.256891e+00	1.256892e+00	1.255823e+00	1.255704e+00	1.255712e+00	1.255704e+00	1.255705e+00	1.255708e+00	1.255668e+00	1.255655e+00	1.256882e+00	1.256877e+00	1.256871e+00	1.256898e+00	1.256900e+00	1.256898e+00	1.256176e+00	1.255704e+00	1.256893e+00	1.256893e+00	1.256892e+00	1.255680e+00	1.255683e+00	1.255623e+00	1.255705e+00	1.255623e+00	1.256897e+00	1.256899e+00	1.256890e+00	1.256888e+00	1.256903e+00	1.256885e+00	1.256563e+00	1.255705e+00	1.255634e+00	1.255660e+00	1.255652e+00	1.255655e+00	1.255705e+00	1.256355e+00	1.256321e+00	1.256377e+00	1.256684e+00	1.255656e+00	1.255634e+00	1.256643e+00	1.256678e+00	1.255691e+00	1.255668e+00	1.255668e+00	1.255665e+00	1.256893e+00	1.255684e+00	1.256900e+00	1.255842e+00	1.255884e+00	1.256896e+00	1.256895e+00	1.255692e+00	1.255691e+00	1.255692e+00	1.255694e+00	1.256063e+00	1.256901e+00	1.255681e+00	1.255683e+00	1.255683e+00	1.255684e+00	1.255685e+00	1.255684e+00	1.255697e+00	1.255693e+00	1.255628e+00	1.255685e+00	1.255685e+00	1.255685e+00	1.255657e+00	1.255671e+00	1.255682e+00	1.255657e+00	1.256898e+00	1.256901e+00	1.255688e+00	1.255658e+00	1.255659e+00	1.255689e+00	1.255628e+00	1.255659e+00	1.255658e+00	1.255659e+00	1.255682e+00	1.255681e+00	1.255634e+00	1.255636e+00	1.255634e+00	1.255655e+00	1.255655e+00	1.255683e+00	1.255709e+00	1.255659e+00	1.255622e+00	1.255595e+00	1.255608e+00	1.256886e+00	1.255684e+00	1.256891e+00	1.255648e+00	1.255651e+00	1.255636e+00	1.255633e+00	1.255661e+00	1.255659e+00	1.255660e+00	1.255687e+00	1.255684e+00	1.255687e+00	1.255645e+00	1.255664e+00	1.256037e+00	1.255635e+00	1.255687e+00	1.255686e+00	1.255685e+00	1.255685e+00	1.255657e+00	1.255630e+00	1.255628e+00	1.256898e+00	1.256898e+00	1.255662e+00	1.256893e+00	1.256892e+00	1.256892e+00	1.256901e+00	1.255656e+00	1.255656e+00	1.255655e+00	1.255659e+00	1.255655e+00	1.255654e+00	1.255655e+00	1.255653e+00	1.255683e+00	1.256221e+00	1.255673e+00	1.255650e+00	1.255650e+00	1.255643e+00	1.255639e+00	1.255639e+00	1.255685e+00	1.255686e+00	1.255685e+00	1.256902e+00	1.255659e+00	1.256898e+00	1.256898e+00	1.256213e+00	1.256273e+00	1.255644e+00	1.255632e+00	1.255681e+00	1.255683e+00	1.255689e+00	1.255685e+00	1.255633e+00	1.256901e+00	1.255626e+00	1.255624e+00	1.255626e+00	1.256058e+00	1.256088e+00	1.256118e+00	1.255668e+00	1.255683e+00	1.255618e+00	1.255624e+00	1.255626e+00	1.255651e+00	1.256896e+00	1.255695e+00	1.255693e+00	1.256597e+00	1.256640e+00	1.256673e+00	1.255646e+00	1.255649e+00	1.255645e+00	1.255654e+00	1.256894