# vtk DataFile Version 3.0
vtk output
ASCII
DATASET UNSTRUCTURED_GRID
POINTS 7320 double
-2.592569e-03	2.970789e-01	3.995579e-02	-2.612981e-03	2.994179e-01	3.787578e-02	-2.613264e-03	2.994504e-01	4.032556e-02	-2.430643e-03	2.785241e-01	1.424866e-01	-2.408275e-03	2.759610e-01	1.433923e-01	-2.415294e-03	2.767652e-01	1.409160e-01	-2.431570e-03	2.786304e-01	-5.744083e-02	-2.435098e-03	2.790346e-01	-5.292723e-02	-2.390846e-03	2.739638e-01	-5.364108e-02	-2.619072e-03	3.001159e-01	1.929855e-01	-2.574614e-03	2.950216e-01	1.951488e-01	-2.589762e-03	2.967573e-01	1.907359e-01	-2.508240e-03	2.874159e-01	1.404028e-01	-2.504489e-03	2.869861e-01	1.379882e-01	-2.527653e-03	2.896404e-01	1.388520e-01	-2.417099e-03	2.769722e-01	1.260660e-01	-2.435844e-03	2.791201e-01	1.245285e-01	-2.435537e-03	2.790849e-01	1.266961e-01	-2.702349e-03	3.096585e-01	-2.174853e-02	-2.668528e-03	3.057830e-01	-2.033192e-02	-2.669346e-03	3.058767e-01	-2.387756e-02	-2.502083e-03	2.867103e-01	1.160270e-01	-2.499760e-03	2.864442e-01	1.135732e-01	-2.515210e-03	2.882145e-01	1.143447e-01	-2.590061e-03	2.967916e-01	3.746793e-02	-2.515747e-03	2.882760e-01	3.500589e-02	-2.497470e-03	2.861817e-01	3.704551e-02	-2.494701e-03	2.858644e-01	3.449692e-02	-2.518740e-03	2.886191e-01	3.703801e-02	-2.299541e-03	2.635013e-01	9.209742e-02	-2.286583e-03	2.620165e-01	9.036667e-02	-2.302288e-03	2.638161e-01	8.960643e-02	-2.707648e-03	3.102658e-01	6.066785e-02	-2.707580e-03	3.102580e-01	5.793580e-02	-2.725614e-03	3.123244e-01	5.901902e-02	-2.385182e-03	2.733148e-01	8.087649e-02	-2.385170e-03	2.733135e-01	8.305544e-02	-2.367534e-03	2.712925e-01	8.176653e-02	-2.615260e-03	2.996791e-01	1.974825e-01	-2.484161e-03	2.846566e-01	1.148764e-01	-2.455150e-03	2.813324e-01	8.998562e-02	-2.435857e-03	2.791215e-01	8.905611e-02	-2.452619e-03	2.810423e-01	8.778066e-02	-2.316776e-03	2.654762e-01	9.092013e-02	-2.714410e-03	3.110405e-01	-3.915766e-03	-2.688950e-03	3.081231e-01	-2.973186e-03	-2.689593e-03	3.081969e-01	-5.770100e-03	-2.416936e-03	2.769534e-01	1.236244e-01	-2.703925e-03	3.098391e-01	1.503929e-01	-2.718366e-03	3.114939e-01	1.520631e-01	-2.691784e-03	3.084479e-01	1.524127e-01	-2.768642e-03	3.172549e-01	5.186617e-02	-2.744890e-03	3.145333e-01	5.302243e-02	-2.744457e-03	3.144836e-01	5.059257e-02	-2.763208e-03	3.166322e-01	5.687103e-02	-2.744419e-03	3.144793e-01	5.550356e-02	-2.764951e-03	3.168320e-01	5.453485e-02	-2.519134e-03	2.886642e-01	1.364154e-01	-2.715626e-03	3.111799e-01	1.565453e-01	-2.739694e-03	3.139378e-01	1.557180e-01	-2.738444e-03	3.137946e-01	1.584195e-01	-2.783006e-03	3.189009e-01	5.592703e-02	-2.313069e-03	2.650515e-01	6.083088e-02	-2.332012e-03	2.672221e-01	5.926332e-02	-2.332926e-03	2.673269e-01	6.154218e-02	-2.436375e-03	2.791810e-01	1.223614e-01	-2.241488e-03	2.568491e-01	9.768593e-02	-2.240924e-03	2.567844e-01	9.556838e-02	-2.256231e-03	2.585384e-01	9.645093e-02	-2.817315e-03	3.228323e-01	9.514932e-02	-2.836124e-03	3.249876e-01	9.409332e-02	-2.836124e-03	3.249876e-01	9.608135e-02	-2.221072e-03	2.545097e-01	6.866996e-02	-2.201641e-03	2.522831e-01	6.754647e-02	-2.221324e-03	2.545385e-01	6.637513e-02	-2.536460e-03	2.906495e-01	2.557710e-02	-2.537217e-03	2.907363e-01	2.811546e-02	-2.513430e-03	2.880105e-01	2.627378e-02	-2.268802e-03	2.599790e-01	-1.640745e-02	-2.249752e-03	2.577961e-01	-1.433523e-02	-2.236170e-03	2.562398e-01	-1.729909e-02	-2.608794e-03	2.989382e-01	3.535899e-02	-2.224488e-03	2.549011e-01	9.438984e-02	-2.226135e-03	2.550899e-01	9.702124e-02	-2.428946e-03	2.783297e-01	1.449760e-01	-2.434033e-03	2.789125e-01	8.655067e-02	-2.602685e-03	2.982382e-01	1.500638e-01	-2.585854e-03	2.963095e-01	1.475537e-01	-2.607657e-03	2.988079e-01	1.474366e-01	-2.800216e-03	3.208730e-01	1.222272e-01	-2.820510e-03	3.231985e-01	1.229563e-01	-2.801002e-03	3.209630e-01	1.243863e-01	-2.268483e-03	2.599424e-01	1.403557e-01	-2.283201e-03	2.616289e-01	1.417026e-01	-2.265413e-03	2.595906e-01	1.428172e-01	-2.448355e-03	2.805537e-01	1.463643e-01	-2.428380e-03	2.782648e-01	1.476044e-01	-2.319805e-03	2.658233e-01	1.801900e-01	-2.285733e-03	2.619191e-01	1.819993e-01	-2.294135e-03	2.628818e-01	1.776359e-01	-2.685824e-03	3.077650e-01	-8.776101e-02	-2.735045e-03	3.134052e-01	-9.347298e-02	-2.737016e-03	3.136309e-01	-8.536906e-02	-2.211045e-03	2.533607e-01	9.595235e-02	-2.585683e-03	2.962900e-01	3.504801e-02	-2.818179e-03	3.229313e-01	9.313123e-02	-2.549142e-03	2.921027e-01	-7.280078e-03	-2.551047e-03	2.923210e-01	-4.546134e-03	-2.525786e-03	2.894264e-01	-5.143334e-03	-2.715387e-03	3.111525e-01	1.596934e-01	-2.320372e-03	2.658883e-01	1.760337e-01	-2.351839e-03	2.694940e-01	1.780130e-01	-2.784913e-03	3.191194e-01	1.233586e-01	-2.780641e-03	3.186299e-01	1.210730e-01	-2.754005e-03	3.155777e-01	1.230034e-01	-2.736015e-03	3.135162e-01	1.241948e-01	-2.735518e-03	3.134593e-01	1.221356e-01	-2.687330e-03	3.079375e-01	5.950571e-02	-2.252921e-03	2.581592e-01	1.411484e-01	-2.343648e-03	2.685555e-01	1.740199e-01	-2.393081e-03	2.742200e-01	-1.852077e-02	-2.391239e-03	2.740088e-01	-2.262957e-02	-2.419984e-03	2.773027e-01	-2.115508e-02	-2.377466e-03	2.724306e-01	-6.205154e-02	-2.352292e-03	2.695460e-01	-5.683883e-02	-2.338783e-03	2.679980e-01	-6.241998e-02	-2.487182e-03	2.850028e-01	1.416102e-01	-2.486351e-03	2.849076e-01	1.392188e-01	-2.836124e-03	3.249876e-01	9.208591e-02	-2.572682e-03	2.948001e-01	-3.808269e-02	-2.540507e-03	2.911133e-01	-4.085864e-02	-2.576220e-03	2.952056e-01	-4.289531e-02	-2.708274e-03	3.103374e-01	1.541555e-01	-2.442859e-03	2.799239e-01	9.121563e-02	-2.513423e-03	2.880098e-01	2.379755e-02	-2.312254e-03	2.649581e-01	5.816838e-02	-2.292146e-03	2.626539e-01	5.944640e-02	-2.292334e-03	2.626754e-01	5.708176e-02	-2.395108e-03	2.744522e-01	-5.876939e-02	-2.202306e-03	2.523593e-01	6.526486e-02	-2.181896e-03	2.500205e-01	6.641462e-02	-2.181896e-03	2.500205e-01	6.413737e-02	-2.433512e-03	2.788529e-01	1.675381e-02	-2.454281e-03	2.812327e-01	1.767744e-02	-2.433108e-03	2.788065e-01	1.919254e-02	-2.366799e-03	2.712083e-01	8.383953e-02	-2.516000e-03	2.883050e-01	2.868929e-02	-2.385975e-03	2.734057e-01	7.655355e-02	-2.385703e-03	2.733745e-01	7.872173e-02	-2.367983e-03	2.713440e-01	7.743227e-02	-2.599506e-03	2.978738e-01	8.070027e-02	-2.616280e-03	2.997960e-01	8.211437e-02	-2.598515e-03	2.977604e-01	8.275557e-02	-2.582076e-03	2.958766e-01	1.499947e-01	-2.663879e-03	3.052503e-01	1.460304e-01	-2.662539e-03	3.050967e-01	1.437016e-01	-2.682365e-03	3.073686e-01	1.443597e-01	-2.316660e-03	2.654629e-01	-5.732442e-02	-2.535896e-03	2.905849e-01	2.307843e-02	-2.798472e-03	3.206731e-01	1.201837e-01	-2.574363e-03	2.949928e-01	1.688667e-01	-2.597774e-03	2.976755e-01	1.712411e-01	-2.568618e-03	2.943345e-01	1.734084e-01	-2.621294e-03	3.003705e-01	-7.246531e-03	-2.622268e-03	3.004821e-01	-4.415004e-03	-2.597552e-03	2.976500e-01	-4.698087e-03	-2.243192e-03	2.570444e-01	-3.221472e-02	-2.246069e-03	2.573740e-01	-3.614252e-02	-2.277413e-03	2.609657e-01	-3.321914e-02	-2.509286e-03	2.875357e-01	1.451898e-01	-2.488101e-03	2.851081e-01	1.464316e-01	-2.487928e-03	2.850883e-01	1.440069e-01	-2.353378e-03	2.696704e-01	1.190356e-01	-2.351788e-03	2.694882e-01	1.210806e-01	-2.335895e-03	2.676671e-01	1.195274e-01	-2.810660e-03	3.220698e-01	-1.584915e-02	-2.811487e-03	3.221645e-01	-1.256496e-02	-2.782934e-03	3.188926e-01	-1.358680e-02	-2.536367e-03	2.906389e-01	-3.668483e-02	-2.571939e-03	2.947150e-01	-3.315193e-02	-2.535342e-03	2.905214e-01	-3.252155e-02	-2.801574e-03	3.210285e-01	1.264031e-01	-2.818657e-03	3.229861e-01	1.271477e-01	-2.802103e-03	3.210892e-01	1.283774e-01	-2.281584e-03	2.614436e-01	1.441388e-01	-2.258450e-03	2.587927e-01	1.450160e-01	-2.409267e-03	2.760747e-01	1.866175e-01	-2.426404e-03	2.780383e-01	1.901378e-01	-2.381414e-03	2.728830e-01	1.890721e-01	-2.312076e-03	2.649376e-01	2.116924e-01	-2.264150e-03	2.594459e-01	2.148102e-01	-2.274277e-03	2.606064e-01	2.091151e-01	-2.800998e-03	3.209625e-01	9.215317e-02	-2.801489e-03	3.210189e-01	9.011766e-02	-2.819250e-03	3.230541e-01	9.109318e-02	-2.585137e-03	2.962273e-01	1.523119e-01	-2.311980e-03	2.649266e-01	5.582493e-02	-2.331346e-03	2.671458e-01	5.458219e-02	-2.332010e-03	2.672218e-01	5.690274e-02	-2.763003e-03	3.166087e-01	5.912986e-02	-2.781874e-03	3.187712e-01	6.039726e-02	-2.762317e-03	3.165302e-01	6.130122e-02	-2.216579e-03	2.539948e-01	1.867995e-01	-2.213281e-03	2.536169e-01	1.826394e-01	-2.248748e-03	2.576810e-01	1.841036e-01	-2.200663e-03	2.521710e-01	7.012087e-02	-2.181896e-03	2.500205e-01	7.090337e-02	-2.181896e-03	2.500205e-01	6.866988e-02	-2.453732e-03	2.811699e-01	1.996161e-02	-2.418245e-03	2.771034e-01	1.214452e-01	-2.556826e-03	2.929833e-01	-5.018218e-02	-2.543925e-03	2.915049e-01	-4.562809e-02	-2.511268e-03	2.877628e-01	-4.821013e-02	-2.242059e-03	2.569145e-01	1.738795e-01	-2.213088e-03	2.535948e-01	1.710724e-01	-2.242593e-03	2.569758e-01	1.704493e-01	-2.407186e-03	2.758362e-01	1.461285e-01	-2.387026e-03	2.735261e-01	1.474237e-01	-2.387122e-03	2.735371e-01	1.449195e-01	-2.482078e-03	2.844180e-01	2.104004e-01	-2.458365e-03	2.817008e-01	2.150506e-01	-2.430883e-03	2.785516e-01	2.099440e-01	-2.337027e-03	2.677968e-01	1.382431e-01	-2.317795e-03	2.655930e-01	1.396688e-01	-2.317335e-03	2.655403e-01	1.374821e-01	-2.726731e-03	3.124525e-01	6.123273e-02	-2.352419e-03	2.695605e-01	1.910667e-01	-2.393133e-03	2.742259e-01	1.928987e-01	-2.513301e-03	2.879958e-01	2.127151e-02	-2.713624e-03	3.109505e-01	-6.521593e-03	-2.436366e-03	2.791799e-01	1.202670e-01	-2.419129e-03	2.772047e-01	1.193879e-01	-2.437134e-03	2.792678e-01	1.181035e-01	-2.782603e-03	3.188547e-01	5.822430e-02	-2.514329e-03	2.881135e-01	-5.314074e-02	-2.763975e-03	3.167202e-01	1.973008e-01	-2.722610e-03	3.119801e-01	1.953076e-01	-2.752573e-03	3.154137e-01	1.925738e-01	-2.448844e-03	2.806097e-01	1.438381e-01	-2.527274e-03	2.895969e-01	1.415131e-01	-2.527876e-03	2.896659e-01	1.439478e-01	-2.505699e-03	2.871246e-01	1.428740e-01	-2.677312e-03	3.067896e-01	-5.282354e-02	-2.634933e-03	3.019334e-01	-5.090734e-02	-2.637268e-03	3.022009e-01	-5.559027e-02	-2.780244e-03	3.185845e-01	1.759657e-01	-2.747786e-03	3.148651
[...]
POINT_DATA 7320

SCALARS Density double 1
LOOKUP_TABLE default
1.255915e+00	1.255990e+00	1.255907e+00	1.255510e+00	1.255505e+00	1.255507e+00	1.257328e+00	1.257328e+00	1.257328e+00	1.255549e+00	1.255540e+00	1.255543e+00	1.255523e+00	1.255523e+00	1.255528e+00	1.255507e+00	1.255511e+00	1.255510e+00	1.257317e+00	1.257319e+00	1.257318e+00	1.255522e+00	1.255521e+00	1.255525e+00	1.256004e+00	1.256069e+00	1.255992e+00	1.256085e+00	1.256001e+00	1.255468e+00	1.255463e+00	1.255468e+00	1.255581e+00	1.255583e+00	1.255583e+00	1.255493e+00	1.255493e+00	1.255486e+00	1.255548e+00	1.255518e+00	1.255511e+00	1.255509e+00	1.255511e+00	1.255472e+00	1.257312e+00	1.257295e+00	1.257309e+00	1.255507e+00	1.255562e+00	1.255565e+00	1.255559e+00	1.255580e+00	1.255612e+00	1.255586e+00	1.255589e+00	1.255589e+00	1.255598e+00	1.255526e+00	1.255564e+00	1.255568e+00	1.255568e+00	1.255598e+00	1.255458e+00	1.255460e+00	1.255465e+00	1.255511e+00	1.255454e+00	1.255453e+00	1.255457e+00	1.255587e+00	1.255591e+00	1.255591e+00	1.255436e+00	1.255429e+00	1.255434e+00	1.256416e+00	1.256326e+00	1.256386e+00	1.257341e+00	1.257345e+00	1.257342e+00	1.256081e+00	1.255449e+00	1.255450e+00	1.255509e+00	1.255509e+00	1.255547e+00	1.255542e+00	1.255548e+00	1.255580e+00	1.255584e+00	1.255580e+00	1.255464e+00	1.255468e+00	1.255464e+00	1.255513e+00	1.255510e+00	1.255477e+00	1.255468e+00	1.255471e+00	1.257326e+00	1.257326e+00	1.257326e+00	1.255446e+00	1.256086e+00	1.255588e+00	1.257316e+00	1.257328e+00	1.257333e+00	1.255564e+00	1.255478e+00	1.255487e+00	1.255577e+00	1.255576e+00	1.255571e+00	1.255568e+00	1.255568e+00	1.255573e+00	1.255460e+00	1.255485e+00	1.257335e+00	1.257333e+00	1.257332e+00	1.257328e+00	1.257328e+00	1.257328e+00	1.255518e+00	1.255519e+00	1.255592e+00	1.257325e+00	1.257326e+00	1.257325e+00	1.255563e+00	1.255510e+00	1.256475e+00	1.255456e+00	1.255447e+00	1.255445e+00	1.257328e+00	1.255427e+00	1.255422e+00	1.255420e+00	1.256728e+00	1.256695e+00	1.256639e+00	1.255486e+00	1.256298e+00	1.255492e+00	1.255492e+00	1.255484e+00	1.255551e+00	1.255554e+00	1.255549e+00	1.255541e+00	1.255555e+00	1.255555e+00	1.255558e+00	1.257329e+00	1.256506e+00	1.255580e+00	1.255539e+00	1.255545e+00	1.255538e+00	1.257309e+00	1.257320e+00	1.257321e+00	1.257334e+00	1.257333e+00	1.257334e+00	1.255524e+00	1.255519e+00	1.255519e+00	1.255486e+00	1.255486e+00	1.255480e+00	1.257312e+00	1.257308e+00	1.257308e+00	1.257326e+00	1.257325e+00	1.257326e+00	1.255581e+00	1.255584e+00	1.255580e+00	1.255467e+00	1.255462e+00	1.255504e+00	1.255509e+00	1.255498e+00	1.255476e+00	1.255464e+00	1.255465e+00	1.255585e+00	1.255585e+00	1.255588e+00	1.255542e+00	1.255452e+00	1.255450e+00	1.255462e+00	1.255591e+00	1.255594e+00	1.255587e+00	1.255451e+00	1.255451e+00	1.255460e+00	1.255431e+00	1.255426e+00	1.255424e+00	1.256610e+00	1.255508e+00	1.257326e+00	1.257326e+00	1.257327e+00	1.255458e+00	1.255450e+00	1.255459e+00	1.255505e+00	1.255499e+00	1.255499e+00	1.255519e+00	1.255514e+00	1.255509e+00	1.255481e+00	1.255477e+00	1.255476e+00	1.255584e+00	1.255489e+00	1.255501e+00	1.256566e+00	1.257302e+00	1.255510e+00	1.255507e+00	1.255511e+00	1.255594e+00	1.257327e+00	1.255572e+00	1.255564e+00	1.255570e+00	1.255512e+00	1.255528e+00	1.255528e+00	1.255523e+00	1.257324e+00	1.257325e+00	1.257325e+00	1.255575e+00	1.255568e+00	1.255572e+00	1.256237e+00	1.256211e+00	1.257325e+00	1.257340e+00	1.255547e+00	1.255560e+00	1.255584e+00	1.257316e+00	1.255800e+00	1.255874e+00	1.255838e+00	1.255522e+00	1.255516e+00	1.255517e+00	1.257315e+00	1.255574e+00	1.255574e+00	1.255571e+00	1.255432e+00	1.255434e+00	1.255438e+00	1.255510e+00	1.255512e+00	1.255512e+00	1.255456e+00	1.257324e+00	1.255466e+00	1.255555e+00	1.255558e+00	1.255558e+00	1.255577e+00	1.255573e+00	1.255584e+00	1.255581e+00	1.255584e+00	1.255580e+00	1.255485e+00	1.255435e+00	1.255441e+00	1.255438e+00	1.256540e+00	1.256521e+00	1.257288e+00	1.257300e+00	1.257305e+00	1.255491e+00	1.255492e+00	1.255483e+00	1.255543e+00	1.255536e+00	1.255545e+00	1.255465e+00	1.255493e+00	1.255485e+00	1.255622e+00	1.255918e+00	1.255584e+00	1.255521e+00	1.255518e+00	1.255518e+00	1.255509e+00	1.255508e+00	1.255511e+00	1.255589e+00	1.255592e+00	1.255592e+00	1.255450e+00	1.255581e+00	1.255488e+00	1.255516e+00	1.255511e+00	1.255564e+00	1.255564e+00	1.255571e+00	1.255522e+00	1.255509e+00	1.255512e+00	1.255512e+00	1.255584e+00	1.255574e+00	1.255574e+00	1.255579e+00	1.255484e+00	1.255477e+00	1.255477e+00	1.257326e+00	1.255592e+00	1.255533e+00	1.255511e+00	1.256596e+00	1.255470e+00	1.255466e+00	1.255470e+00	1.255456e+00	1.255466e+00	1.256410e+00	1.256375e+00	1.256320e+00	1.257336e+00	1.255508e+00	1.255537e+00	1.255539e+00	1.255547e+00	1.255471e+00	1.255472e+00	1.255589e+00	1.255530e+00	1.255529e+00	1.255526e+00	1.255574e+00	1.255574e+00	1.255571e+00	1.255474e+00	1.255470e+00	1.255473e+00	1.257355e+00	1.257352e+00	1.257347e+00	1.255580e+00	1.255584e+00	1.255581e+00	1.255525e+00	1.255585e+00	1.255584e+00	1.255467e+00	1.255508e+00	1.255447e+00	1.255584e+00	1.257351e+00	1.255423e+00	1.257338e+00	1.257341e+00	1.255571e+00	1.255569e+00	1.255575e+00	1.255569e+00	1.255562e+00	1.255562e+00	1.255593e+00	1.255559e+00	1.255555e+00	1.255554e+00	1.255573e+00	1.255492e+00	1.255559e+00	1.255546e+00	1.255546e+00	1.255540e+00	1.255583e+00	1.255581e+00	1.255577e+00	1.255580e+00	1.255598e+00	1.255529e+00	1.255523e+00	1.255571e+00	1.257319e+00	1.257313e+00	1.255584e+00	1.255571e+00	1.255753e+00	1.255748e+00	1.255673e+00	1.255585e+00	1.255581e+00	1.255584e+00	1.255567e+00	1.255562e+00	1.255567e+00	1.255588e+00	1.255429e+00	1.257307e+00	1.255480e+00	1.257325e+00	1.255484e+00	1.255570e+00	1.255576e+00	1.255567e+00	1.255444e+00	1.255443e+00	1.255447e+00	1.257326e+00	1.257325e+00	1.257326e+00	1.255444e+00	1.255444e+00	1.255448e+00	1.255581e+00	1.255553e+00	1.255553e+00	1.255550e+00	1.255563e+00	1.255562e+00	1.255560e+00	1.255469e+00	1.255465e+00	1.255558e+00	1.255550e+00	1.255848e+00	1.255902e+00	1.255948e+00	1.255463e+00	1.255465e+00	1.255471e+00	1.255465e+00	1.255490e+00	1.255491e+00	1.255481e+00	1.255448e+00	1.255472e+00	1.255468e+00	1.255470e+00	1.255448e+00	1.255448e+00	1.255470e+00	1.255466e+00	1.255468e+00	1.257331e+00	1.257331e+00	1.257332e+00	1.255577e+00	1.255575e+00	1.255579e+00	1.256786e+00	1.255586e+00	1.255587e+00	1.255590e+00	1.255580e+00	1.255464e+00	1.256356e+00	1.255466e+00	1.257319e+00	1.257317e+00	1.255574e+00	1.255574e+00	1.255571e+00	1.255577e+00	1.255577e+00	1.257338e+00	1.257309e+00	1.255898e+00	1.257326e+00	1.257313e+00	1.257310e+00	1.255513e+00	1.255513e+00	1.255444e+00	1.255448e+00	1.255448e+00	1.255559e+00	1.255444e+00	1.255547e+00	1.255480e+00	1.255480e+00	1.255509e+00	1.256916e+00	1.256885e+00	1.256821e+00	1.255425e+00	1.255474e+00	1.257327e+00	1.255558e+00	1.255564e+00	1.255577e+00	1.255576e+00	1.255575e+00	1.255640e+00	1.255667e+00	1.255469e+00	1.255508e+00	1.255511e+00	1.255507e+00	1.255484e+00	1.255480e+00	1.255485e+00	1.255510e+00	1.255574e+00	1.255571e+00	1.255439e+00	1.255439e+00	1.255443e+00	1.257332e+00	1.255574e+00	1.255574e+00	1.255577e+00	1.255504e+00	1.255510e+00	1.255577e+00	1.255502e+00	1.255499e+00	1.255496e+00	1.255492e+00	1.255505e+00	1.255471e+00	1.257310e+00	1.255577e+00	1.255580e+00	1.255558e+00	1.255563e+00	1.257313e+00	1.255500e+00	1.255496e+00	1.255503e+00	1.255444e+00	1.255550e+00	1.255551e+00	1.255556e+00	1.255491e+00	1.255588e+00	1.255588e+00	1.255480e+00	1.255510e+00	1.257344e+00	1.255470e+00	1.255466e+00	1.255469e+00	1.255648e+00	1.255598e+00	1.255568e+00	1.255705e+00	1.255738e+00	1.255478e+00	1.255478e+00	1.256633e+00	1.256724e+00	1.256678e+00	1.255480e+00	1.256654e+00	1.256745e+00	1.256684e+00	1.255464e+00	1.257327e+00	1.255530e+00	1.255529e+00	1.255526e+00	1.256981e+00	1.255508e+00	1.255508e+00	1.255510e+00	1.255591e+00	1.255594e+00	1.255594e+00	1.256681e+00	1.255560e+00	1.255559e+00	1.257318e+00	1.257319e+00	1.257319e+00	1.255958e+00	1.256046e+00	1.256001e+00	1.255483e+00	1.255490e+00	1.255553e+00	1.255554e+00	1.255551e+00	1.255561e+00	1.255482e+00	1.255483e+00	1.255477e+00	1.255482e+00	1.255502e+00	1.255503e+00	1.255540e+00	1.255525e+00	1.255551e+00	1.255749e+00	1.257326e+00	1.257329e+00	1.257329e+00	1.257330e+00	1.255505e+00	1.256002e+00	1.256641e+00	1.256690e+00	1.256596e+00	1.256497e+00	1.256445e+00	1.257320e+00	1.255429e+00	1.255432e+00	1.255579e+00	1.255579e+00	1.255577e+00	1.255581e+00	1.255440e+00	1.255444e+00	1.255504e+00	1.256530e+00	1.255507e+00	1.255500e+00	1.255577e+00	1.255574e+00	1.256253e+00	1.256342e+00	1.255578e+00	1.255581e+00	1.255576e+00	1.255481e+00	1.255488e+00	1.255489e+00	1.255479e+00	1.255557e+00	1.257327e+00	1.257327e+00	1.257327e+00	1.257322e+00	1.257323e+00	1.257321e+00	1.255521e+00	1.255521e+00	1.255527e+00	1.255592e+00	1.255575e+00	1.255523e+00	1.256776e+00	1.255584e+00	1.255581e+00	1.255576e+00	1.255826e+00	1.257304e+00	1.257176e+00	1.257242e+00	1.256655e+00	1.256565e+00	1.255633e+00	1.257333e+00	1.257341e+00	1.257343e+00	1.257345e+00	1.255571e+00	1.255507e+00	1.257009e+00	1.257246e+00	1.255445e+00	1.255449e+00	1.255449e+00	1.255595e+00	1.255445e+00	1.255571e+00	1.257343e+00	1.255792e+00	1.255852e+00	1.255750e+00	1.255458e+00	1.255477e+00	1.255476e+00	1.255566e+00	1.255512e+00	1.256121e+00	1.256077e+00	1.256025e+00	1.256310e+00	1.256266e+00	1.256214e+00	1.255504e+00	1.255509e+00	1.255503e+00	1.255579e+00	1.255424e+00	1.255430e+00	1.255424e+00	1.255482e+00	1.255490e+00	1.257322e+00	1.256359e+00	1.256408e+00	1.256315e+00	1.255568e+00	1.255568e+00	1.255443e+00	1.255442e+00	1.257319e+00	1.257320e+00	1.255661e+00	1.257349e+00	1.257320e+00	1.257338e+00	1.257321e+00	1.257320e+00	1.257322e+00	1.255454e+00	1.255450e+00	1.255450e+00	1.257296e+00	1.257305e+00	1.256499e+00	1.256594e+00	1.256549e+00	1.255468e+00	1.255464e+00	1.255468e+00	1.255449e+00	1.255452e+00	1.255446e+00	1.255568e+00	1.255568e+00	1.255576e+00	1.255575e+00	1.255579e+00	1.256020e+00	1.255943e+00	1.255971e+00	1.257328e+00	1.257328e+00	1.257328e+00	1.255581e+00	1.255575e+00	1.255580e+00	1.255458e+00	1.255532e+00	1.256054e+00	1.255578e+00	1.255512e+00	1.255579e+00	1.255430e+00	1.256076e+00	1.256030e+00	1.255988e+00	1.255485e+00	1.255485e+00	1.255480e+00	1.255836e+00	1.255887e+00	1.255515e+00	1.255461e+00	1.255513e+00	1.255513e+00	1.255487e+00	1.255487e+00	1.255457e+00	1.256174e+00	1.256157e+00	1.255467e+00	1.255552e+00	1.257236e+00	1.257178e+00	1.255480e+00	1.255574e+00	1.255574e+00	1.255574e+00	1.255571e+00	1.255586e+00	1.255583e+00	1.255583e+00	1.255588e+00	1.255588e+00	1.256035e+00	1.255587e+00	1.255716e+00	1.255743e+00	1.257326e+00	1.255468e+00	1.255464e+00	1.255466e+00	1.255465e+00	1.257329e+00	1.257329e+00	1.255485e+00	1.256454e+00	1.255850e+00	1.255771e+00	1.255806e+00	1.255588e+00	1.255589e+00	1.255592e+00	1.256735e+00	1.256834e+00	1.256785e+00	1.257102e+00	1.257069e+00	1.257157e+00	1.255589e+00	1.256986e+00	1.257013e+00	1.255562e+00	1.255435e+00	1.255437e+00	1.255439e+00	1.255557e+00	1.255517e+00	1.257174e+00	1.255568e+00	1.255568e+00	1.255461e+00	1.257319e+00	1.255470e+00	1.255474e+00	1.255475e+00	1.256131e+00	1.256085e+00	1.256178e+00	1.255530e+00	1.255529e+00	1.255526e+00	1.255578e+00	1.255579e+00	1.255582e+00	1.255581e+00	1.255580e+00	1.255584e+00	1.257332e+00	1.255882e+00	1.257337e+00	1.257337e+00	1.257340e+00	1.255550e+00	1.255553e+00	1.255461e+00	1.255564e+00	1.255564e+00	1.255567e+00	1.255582e+00	1.255586e+00	1.255510e+00	1.255525e+00	1.255433e+00	1.257327e+00	1.257326e+00	1.257327e+00	1.255475e+00	1.255475e+00	1.256171e+00	1.256222e+00	1.256128e+00	1.255438e+00	1.255441e+00	1.255442e+00	1.256834e+00	1.255583e+00	1.255487e+00	1.255488e+00	1.255476e+00	1.255509e+00	1.255573e+00	1.255550e+00	1.255550e+00	1.256503e+00	1.255576e+00	1.255577e+00	1.255577e+00	1.255581e+00	1.255593e+00	1.255471e+00	1.255584e+00	1.255467e+00	1.255449e+00	1.255562e+00	1.255444e+00	1.256111e+00	1.255545e+00	1.255546e+00	1.255553e+00	1.255448e+00	1.255511e+00	1.255508e+00	1.255510e+00	1.256786e+00	1.256739e+00	1.256836e+00	1.257328e+00	1.255419e+00	1.255554e+00	1.256175e+00	1.256223e+00	1.256267e+00	1.255436e+00	1.256870e+00	1.255566e+00	1.257346e+00	1.257347e+00	1.257347e+00	1.255506e+00	1.255512e+00	1.255512e+00	1.255930e+00	1.255460e+00	1.255508e+00	1.255503e+00	1.257315e+00	1.255575e+00	1.255519e+00	1.255450e+00	1.256930e+00	1.255985e+00	1.257337e+00	1.255556e+00	1.255553e+00	1.255553e+00	1.255445e+00	1.255445e+00	1.255449e+00	1.255577e+00	1.255579e+00	1.255572e+00	1.255528e+00	1.255802e+00	1.255763e+00	1.255718e+00	1.256899e+00	1.255441e+00	1.255437e+00	1.256813e+00	1.256845e+00	1.255449e+00	1.257320e+00	1.255591e+00	1.255663e+00	1.255761e+00	1.255717e+00	1.255411e+00	1.255409e+00	1.255407e+00	1.256266e+00	1.256306e+00	1.255719e+00	1.255504e+00	1.255499e+00	1.255499e+00	1.255552e+00	1.255477e+00	1.255503e+00	1.255504e+00	1.255581e+00	1.257320e+00	1.257321e+00	1.256692e+00	1.256734e+00	1.256639e+00	1.255476e+00	1.255476e+00	1.257324e+00	1.257331e+00	1.257331e+00	1.255560e+00	1.255560e+00	1.255563e+00	1.255488e+00	1.255489e+00	1.255569e+00	1.255572e+00	1.255568e+00	1.257330e+00	1.255877e+00	1.255975e+00	1.255575e+00	1.257323e+00	1.255507e+00	1.255491e+00	1.255490e+00	1.255485e+00	1.257337e+00	1.257335e+00	1.257336e+00	1.256545e+00	1.256598e+00	1.255537e+00	1.255537e+00	1.255541e+00	1.255574e+00	1.255477e+00	1.255560e+00	1.255560e+00	1.255557e+00	1.256762e+00	1.255495e+00	1.257337e+00	1.257301e+00	1.255559e+00	1.255508e+00	1.255766e+00	1.255480e+00	1.255493e+00	1.255493e+00	1.255503e+00	1.255507e+00	1.255596e+00	1.255628e+00	1.255573e+00	1.255478e+00	1.255489e+00	1.255460e+00	1.255560e+00	1.257324e+00	1.257322e+00	1.255451e+00	1.256360e+00	1.256411e+00	1.256453e+00	1.255467e+00	1.255591e+00	1.255511e+00	1.255510e+00	1.255509e+00	1.255582e+00	1.255585e+00	1.255586e+00	1.255583e+00	1.256287e+00	1.256207e+00	1.256232e+00	1.256150e+00	1.256119e+00	1.255508e+00	1.255508e+00	1.255510e+00	1.255508e+00	1.255555e+00	1.256786e+00	1.257343e+00	1.256828e+00	1.255473e+00	1.255472e+00	1.256294e+00	1.256340e+00	1.256376e+00	1.255449e+00	1.255445e+00	1.255449e+00	1.256547e+00	1.256596e+00	1.255698e+00	1.255701e+00	1.255472e+00	1.255936e+00	1.257320e+00	1.255445e+00	1.256880e+00	1.256923e+00	1.255465e+00	1.255460e+00	1.255462e+00	1.257315e+00	1.255523e+00	1.255462e+00	1.255462e+00	1.256513e+00	1.255576e+00	1.255490e+00	1.255473e+00	1.256254e+00	1.255541e+00	1.255503e+00	1.255567e+00	1.255570e+00	1.255567e+00	1.256931e+00	1.256981e+00	1.256883e+00	1.256838e+00	1.256745e+00	1.256128e+00	1.256169e+00	1.256086e+00	1.255412e+00	1.255425e+00	1.255406e+00	1.255477e+00	1.255536e+00	1.255490e+00	1.255490e+00	1.255486e+00	1.255470e+00	1.255484e+00	1.255483e+00	1.255571e+00	1.255581e+00	1.257327e+00	1.255591e+00	1.255623e+00	1.255521e+00	1.255508e+00	1.255457e+00	1.255574e+00	1.255550e+00	1.255552e+00	1.255554e+00	1.255582e+00	1.255583e+00	1.255587e+00	1.255543e+00	1.257331e+00	1.255443e+00	1.255447e+00	1.255580e+00	1.255581e+00	1.255584e+00	1.257071e+00	1.255580e+00	1.255487e+00	1.255487e+00	1.255493e+00	1.255571e+00	1.255568e+00	1.255568e+00	1.255563e+00	1.255468e+00	1.255464e+00	1.255468e+00	1.255526e+00	1.255526e+00	1.255529e+00	1.255445e+00	1.255449e+00	1.255574e+00	1.255594e+00	1.255598e+00	1.255597e+00	1.255557e+00	1.255559e+00	1.255559e+00	1.256504e+00	1.255565e+00	1.255568e+00	1.255564e+00	1.255577e+00	1.257327e+00	1.255578e+00	1.255583e+00	1.255583e+00	1.257324e+00	1.257324e+00	1.257325e+00	1.255559e+00	1.255453e+00	1.255487e+00	1.255479e+00	1.255467e+00	1.255455e+00	1.255441e+00	1.257338e+00	1.256316e+00	1.256639e+00	1.256550e+00	1.255482e+00	1.255554e+00	1.257080e+00	1.257028e+00	1.256983e+00	1.257313e+00	1.255447e+00	1.255442e+00	1.255442e+00	1.255437e+00	1.256884e+00	1.255505e+00	1.255571e+00	1.256035e+00	1.255940e+00	1.257327e+00	1.255567e+00	1.255577e+00	1.255564e+00	1.255560e+00	1.256922e+00	1.255448e+00	1.255442e+00	1.255448e+00	1.257323e+00	1.257322e+00	1.257322e+00	1.256427e+00	1.256461e+00	1.255607e+00	1.257109e+00	1.255522e+00	1.255530e+00	1.255522e+00	1.255881e+00	1.255556e+00	1.255588e+00	1.255591e+00	1.255584e+00	1.255458e+00	1.255539e+00	1.255496e+00	1.255561e+00	1.255464e+00	1.257325e+00	1.257324e+00	1.257324e+00	1.255577e+00	1.255577e+00	1.255580e+00	1.255465e+00	1.255471e+00	1.255470e+00	1.255559e+00	1.255558e+00	1.255990e+00	1.256041e+00	1.256083e+00	1.255566e+00	1.255569e+00	1.255565e+00	1.257340e+00	1.255579e+00	1.255579e+00	1.255586e+00	1.255947e+00	1.256688e+00	1.255577e+00	1.255481e+00	1.255573e+00	1.255448e+00	1.255453e+00	1.257348e+00	1.256978e+00	1.256138e+00	1.255528e+00	1.255543e+00	1.255542e+00	1.255538e+00	1.255580e+00	1.255580e+00	1.255587e+00	1.255498e+00	1.255497e+00	1.255443e+00	1.256805e+00	1.256720e+00	1.256750e+00	1.255568e+00	1.255509e+00	1.257327e+00	1.257322e+00	1.257325e+00	1.255512e+00	1.255513e+00	1.255448e+00	1.255442e+00	1.255442e+00	1.257325e+00	1.255467e+00	1.255475e+00	1.257324e+00	1.257324e+00	1.257323e+00	1.257325e+00	1.257325e+00	1.257325e+00	1.255552e+00	1.255442e+00	1.255581e+00	1.255587e+00	1.255442e+00	1.255448e+00	1.257333e+00	1.257332e+00	1.257335e+00	1.257334e+00	1.255898e+00	1.257318e+00	1.257317e+00	1.255526e+00	1.257341e+00	1.257344e+00	1.257343e+00	1.257315e+00	1.257314e+00	1.255563e+00	1.257310e+00	1.255513e+00	1.255513e+00	1.257018e+00	1.255583e+00	1.255587e+00	1.255536e+00	1.255471e+00	1.255470e+00	1.255471e+00	1.256832e+00	1.257312e+00	1.255569e+00	1.255499e+00	1.255509e+00	1.255509e+00	1.255587e+00	1.255583e+00	1.257300e+00	1.255544e+00	1.257306e+00	1.255558e+00	1.255856e+00	1.255381e+00	1.255504e+00	1.255554e+00	1.255557e+00	1.255441e+00	1.255444e+00	1.255445e+00	1.255440e+00	1.255557e+00	1.255554e+00	1.255553e+00	1.255587e+00	1.257321e+00	1.257322e+00	1.255805e+00	1.255586e+00	1.255608e+00	1.255592e+00	1.255593e+00	1.255596e+00	1.255529e+00	1.255505e+00	1.257303e+00	1.257300e+00	1.257294e+00	1.257333e+00	1.257334e+00	1.257333e+00	1.256391e+00	1.255586e+00	1.257323e+00	1.257323e+00	1.257323e+00	1.255546e+00	1.255550e+00	1.255442e+00	1.255587e+00	1.255442e+00	1.257331e+00	1.257333e+00	1.257319e+00	1.257316e+00	1.257340e+00	1.257312e+00	1.256962e+00	1.255587e+00	1.255468e+00	1.255519e+00	1.255499e+00	1.255504e+00	1.255587e+00	1.256667e+00	1.256615e+00	1.256698e+00	1.257128e+00	1.255508e+00	1.255468e+00	1.257073e+00	1.257117e+00	1.255571e+00	1.255530e+00	1.255529e+00	1.255526e+00	1.257324e+00	1.255553e+00	1.257332e+00	1.255833e+00	1.255905e+00	1.257328e+00	1.257328e+00	1.255573e+00	1.255571e+00	1.255573e+00	1.255576e+00	1.256210e+00	1.257315e+00	1.255547e+00	1.255550e+00	1.255551e+00	1.255553e+00	1.255554e+00	1.255554e+00	1.255579e+00	1.255575e+00	1.255454e+00	1.255557e+00	1.255557e+00	1.255555e+00	1.255512e+00	1.255533e+00	1.255550e+00	1.255512e+00	1.257332e+00	1.257336e+00	1.255564e+00	1.255512e+00	1.255516e+00	1.255569e+00	1.255454e+00	1.255516e+00	1.255512e+00	1.255516e+00	1.255550e+00	1.255548e+00	1.255468e+00	1.255472e+00	1.255468e+00	1.255507e+00	1.255509e+00	1.255551e+00	1.255597e+00	1.255515e+00	1.255442e+00	1.255387e+00	1.255411e+00	1.257314e+00	1.255554e+00	1.257321e+00	1.255492e+00	1.255497e+00	1.255470e+00	1.255466e+00	1.255520e+00	1.255516e+00	1.255519e+00	1.255559e+00	1.255554e+00	1.255559e+00	1.255488e+00	1.255524e+00	1.256169e+00	1.255469e+00	1.255564e+00	1.255557e+00	1.255555e+00	1.255556e+00	1.255512e+00	1.255458e+00	1.255453e+00	1.257329e+00	1.257330e+00	1.255522e+00	1.257323e+00	1.257323e+00	1.257322e+00	1.257336e+00	1.255508e+00	1.255508e+00	1.255505e+00	1.255516e+00	1.255507e+00	1.255504e+00	1.255507e+00	1.255501e+00	1.255551e+00	1.256470e+00	1.255536e+00	1.255497e+00	1.255496e+00	1.255484e+00	1.255477e+00	1.255477e+00	1.255555e+00	1.255559e+00	1.255559e+00	1.257339e+00	1.255516e+00	1.257331e+00	1.257331e+00	1.256458e+00	1.256551e+00	1.255486e+00	1.255462e+00	1.255547e+00	1.255551e+00	1.255567e+00	1.255555e+00	1.255465e+00	1.257335e+00	1.255451e+00	1.255447e+00	1.255450e+00	1.256207e+00	1.256255e+00	1.256305e+00	1.255529e+00	1.255550e+00	1.255433e+00	1.255445e+00	1.255449e+00	1.255498e+00	1.257328e+00	1.255577e+00	1.255574e+00	1.257013e+00	1.257068e+00	1.257107e+00	1.255489e+00	1.255494e+00	1.255488e+00	1.255504e+00	1.257325