# vtk DataFile Version 3.0
vtk output
ASCII
DATASET UNSTRUCTURED_GRID
POINTS 2720 double
-2.181896e-03	2.500205e-01	-1.000000e-01	-2.216329e-03	2.539661e-01	-1.000000e-01	-2.181896e-03	2.500205e-01	-7.764540e-02	-2.216329e-03	2.539661e-01	-7.764540e-02	-2.181896e-03	2.500205e-01	-6.010200e-02	-2.216329e-03	2.539661e-01	-6.010200e-02	-2.181896e-03	2.500205e-01	-4.636143e-02	-2.216329e-03	2.539661e-01	-4.636143e-02	-2.181896e-03	2.500205e-01	-3.562254e-02	-2.216329e-03	2.539661e-01	-3.562254e-02	-2.181896e-03	2.500205e-01	-2.724950e-02	-2.216329e-03	2.539661e-01	-2.724950e-02	-2.181896e-03	2.500205e-01	-2.073818e-02	-2.216329e-03	2.539661e-01	-2.073818e-02	-2.181896e-03	2.500205e-01	-1.568936e-02	-2.216329e-03	2.539661e-01	-1.568936e-02	-2.181896e-03	2.500205e-01	-1.178728e-02	-2.216329e-03	2.539661e-01	-1.178728e-02	-2.181896e-03	2.500205e-01	-8.782491e-03	-2.216329e-03	2.539661e-01	-8.782491e-03	-2.181896e-03	2.500205e-01	-6.478240e-03	-2.216329e-03	2.539661e-01	-6.478240e-03	-2.181896e-03	2.500205e-01	-4.719558e-03	-2.216329e-03	2.539661e-01	-4.719558e-03	-2.181896e-03	2.500205e-01	-3.384591e-03	-2.216329e-03	2.539661e-01	-3.384591e-03	-2.181896e-03	2.500205e-01	-2.377695e-03	-2.216329e-03	2.539661e-01	-2.377695e-03	-2.181896e-03	2.500205e-01	-1.623947e-03	-2.216329e-03	2.539661e-01	-1.623947e-03	-2.181896e-03	2.500205e-01	-1.064777e-03	-2.216329e-03	2.539661e-01	-1.064777e-03	-2.181896e-03	2.500205e-01	-6.545105e-04	-2.216329e-03	2.539661e-01	-6.545105e-04	-2.181896e-03	2.500205e-01	-3.576203e-04	-2.216329e-03	2.539661e-01	-3.576203e-04	-2.181896e-03	2.500205e-01	-1.465511e-04	-2.216329e-03	2.539661e-01	-1.465511e-04	-2.181896e-03	2.500205e-01	0.000000e+00	-2.216329e-03	2.539661e-01	0.000000e+00	-2.250762e-03	2.579118e-01	-1.000000e-01	-2.250762e-03	2.579118e-01	-7.764540e-02	-2.250762e-03	2.579118e-01	-6.010200e-02	-2.250762e-03	2.579118e-01	-4.636143e-02	-2.250762e-03	2.579118e-01	-3.562254e-02	-2.250762e-03	2.579118e-01	-2.724950e-02	-2.250762e-03	2.579118e-01	-2.073818e-02	-2.250762e-03	2.579118e-01	-1.568936e-02	-2.250762e-03	2.579118e-01	-1.178728e-02	-2.250762e-03	2.579118e-01	-8.782491e-03	-2.250762e-03	2.579118e-01	-6.478240e-03	-2.250762e-03	2.579118e-01	-4.719558e-03	-2.250762e-03	2.579118e-01	-3.384591e-03	-2.250762e-03	2.579118e-01	-2.377695e-03	-2.250762e-03	2.579118e-01	-1.623947e-03	-2.250762e-03	2.579118e-01	-1.064777e-03	-2.250762e-03	2.579118e-01	-6.545105e-04	-2.250762e-03	2.579118e-01	-3.576203e-04	-2.250762e-03	2.579118e-01	-1.465511e-04	-2.250762e-03	2.579118e-01	0.000000e+00	-2.285195e-03	2.618574e-01	-1.000000e-01	-2.285195e-03	2.618574e-01	-7.764540e-02	-2.285195e-03	2.618574e-01	-6.010200e-02	-2.285195e-03	2.618574e-01	-4.636143e-02	-2.285195e-03	2.618574e-01	-3.562254e-02	-2.285195e-03	2.618574e-01	-2.724950e-02	-2.285195e-03	2.618574e-01	-2.073818e-02	-2.285195e-03	2.618574e-01	-1.568936e-02	-2.285195e-03	2.618574e-01	-1.178728e-02	-2.285195e-03	2.618574e-01	-8.782491e-03	-2.285195e-03	2.618574e-01	-6.478240e-03	-2.285195e-03	2.618574e-01	-4.719558e-03	-2.285195e-03	2.618574e-01	-3.384591e-03	-2.285195e-03	2.618574e-01	-2.377695e-03	-2.285195e-03	2.618574e-01	-1.623947e-03	-2.285195e-03	2.618574e-01	-1.064777e-03	-2.285195e-03	2.618574e-01	-6.545105e-04	-2.285195e-03	2.618574e-01	-3.576203e-04	-2.285195e-03	2.618574e-01	-1.465511e-04	-2.285195e-03	2.618574e-01	0.000000e+00	-2.319628e-03	2.658030e-01	-1.000000e-01	-2.319628e-03	2.658030e-01	-7.764540e-02	-2.319628e-03	2.658030e-01	-6.010200e-02	-2.319628e-03	2.658030e-01	-4.636143e-02	-2.319628e-03	2.658030e-01	-3.562254e-02	-2.319628e-03	2.658030e-01	-2.724950e-02	-2.319628e-03	2.658030e-01	-2.073818e-02	-2.319628e-03	2.658030e-01	-1.568936e-02	-2.319628e-03	2.658030e-01	-1.178728e-02	-2.319628e-03	2.658030e-01	-8.782491e-03	-2.319628e-03	2.658030e-01	-6.478240e-03	-2.319628e-03	2.658030e-01	-4.719558e-03	-2.319628e-03	2.658030e-01	-3.384591e-03	-2.319628e-03	2.658030e-01	-2.377695e-03	-2.319628e-03	2.658030e-01	-1.623947e-03	-2.319628e-03	2.658030e-01	-1.064777e-03	-2.319628e-03	2.658030e-01	-6.545105e-04	-2.319628e-03	2.658030e-01	-3.576203e-04	-2.319628e-03	2.658030e-01	-1.465511e-04	-2.319628e-03	2.658030e-01	0.000000e+00	-2.354061e-03	2.697487e-01	-1.000000e-01	-2.354061e-03	2.697487e-01	-7.764540e-02	-2.354061e-03	2.697487e-01	-6.010200e-02	-2.354061e-03	2.697487e-01	-4.636143e-02	-2.354061e-03	2.697487e-01	-3.562254e-02	-2.354061e-03	2.697487e-01	-2.724950e-02	-2.354061e-03	2.697487e-01	-2.073818e-02	-2.354061e-03	2.697487e-01	-1.568936e-02	-2.354061e-03	2.697487e-01	-1.178728e-02	-2.354061e-03	2.697487e-01	-8.782491e-03	-2.354061e-03	2.697487e-01	-6.478240e-03	-2.354061e-03	2.697487e-01	-4.719558e-03	-2.354061e-03	2.697487e-01	-3.384591e-03	-2.354061e-03	2.697487e-01	-2.377695e-03	-2.354061e-03	2.697487e-01	-1.623947e-03	-2.354061e-03	2.697487e-01	-1.064777e-03	-2.354061e-03	2.697487e-01	-6.545105e-04	-2.354061e-03	2.697487e-01	-3.576203e-04	-2.354061e-03	2.697487e-01	-1.465511e-04	-2.354061e-03	2.697487e-01	0.000000e+00	-2.388494e-03	2.736943e-01	-1.000000e-01	-2.388494e-03	2.736943e-01	-7.764540e-02	-2.388494e-03	2.736943e-01	-6.010200e-02	-2.388494e-03	2.736943e-01	-4.636143e-02	-2.388494e-03	2.736943e-01	-3.562254e-02	-2.388494e-03	2.736943e-01	-2.724950e-02	-2.388494e-03	2.736943e-01	-2.073818e-02	-2.388494e-03	2.736943e-01	-1.568936e-02	-2.388494e-03	2.736943e-01	-1.178728e-02	-2.388494e-03	2.736943e-01	-8.782491e-03	-2.388494e-03	2.736943e-01	-6.478240e-03	-2.388494e-03	2.736943e-01	-4.719558e-03	-2.388494e-03	2.736943e-01	-3.384591e-03	-2.388494e-03	2.736943e-01	-2.377695e-03	-2.388494e-03	2.736943e-01	-1.623947e-03	-2.388494e-03	2.736943e-01	-1.064777e-03	-2.388494e-03	2.736943e-01	-6.545105e-04	-2.388494e-03	2.736943e-01	-3.576203e-04	-2.388494e-03	2.736943e-01	-1.465511e-04	-2.388494e-03	2.736943e-01	0.000000e+00	-2.422927e-03	2.776399e-01	-1.000000e-01	-2.422927e-03	2.776399e-01	-7.764540e-02	-2.422927e-03	2.776399e-01	-6.010200e-02	-2.422927e-03	2.776399e-01	-4.636143e-02	-2.422927e-03	2.776399e-01	-3.562254e-02	-2.422927e-03	2.776399e-01	-2.724950e-02	-2.422927e-03	2.776399e-01	-2.073818e-02	-2.422927e-03	2.776399e-01	-1.568936e-02	-2.422927e-03	2.776399e-01	-1.178728e-02	-2.422927e-03	2.776399e-01	-8.782491e-03	-2.422927e-03	2.776399e-01	-6.478240e-03	-2.422927e-03	2.776399e-01	-4.719558e-03	-2.422927e-03	2.776399e-01	-3.384591e-03	-2.422927e-03	2.776399e-01	-2.377695e-03	-2.422927e-03	2.776399e-01	-1.623947e-03	-2.422927e-03	2.776399e-01	-1.064777e-03	-2.422927e-03	2.776399e-01	-6.545105e-04	-2.422927e-03	2.776399e-01	-3.576203e-04	-2.422927e-03	2.776399e-01	-1.465511e-04	-2.422927e-03	2.776399e-01	0.000000e+00	-2.457360e-03	2.815856e-01	-1.000000e-01	-2.457360e-03	2.815856e-01	-7.764540e-02	-2.457360e-03	2.815856e-01	-6.010200e-02	-2.457360e-03	2.815856e-01	-4.636143e-02	-2.457360e-03	2.815856e-01	-3.562254e-02	-2.457360e-03	2.815856e-01	-2.724950e-02	-2.457360e-03	2.815856e-01	-2.073818e-02	-2.457360e-03	2.815856e-01	-1.568936e-02	-2.457360e-03	2.815856e-01	-1.178728e-02	-2.457360e-03	2.815856e-01	-8.782491e-03	-2.457360e-03	2.815856e-01	-6.478240e-03	-2.457360e-03	2.815856e-01	-4.719558e-03	-2.457360e-03	2.815856e-01	-3.384591e-03	-2.457360e-03	2.815856e-01	-2.377695e-03	-2.457360e-03	2.815856e-01	-1.623947e-03	-2.457360e-03	2.815856e-01	-1.064777e-03	-2.457360e-03	2.815856e-01	-6.545105e-04	-2.457360e-03	2.815856e-01	-3.576203e-04	-2.457360e-03	2.815856e-01	-1.465511e-04	-2.457360e-03	2.815856e-01	0.000000e+00	-2.491793e-03	2.855312e-01	-1.000000e-01	-2.491793e-03	2.855312e-01	-7.764540e-02	-2.491793e-03	2.855312e-01	-6.010200e-02	-2.491793e-03	2.855312e-01	-4.636143e-02	-2.491793e-03	2.855312e-01	-3.562254e-02	-2.491793e-03	2.855312e-01	-2.724950e-02	-2.491793e-03	2.855312e-01	-2.073818e-02	-2.491793e-03	2.855312e-01	-1.568936e-02	-2.491793e-03	2.855312e-01	-1.178728e-02	-2.491793e-03	2.855312e-01	-8.782491e-03	-2.491793e-03	2.855312e-01	-6.478240e-03	-2.491793e-03	2.855312e-01	-4.719558e-03	-2.491793e-03	2.855312e-01	-3.384591e-03	-2.491793e-03	2.855312e-01	-2.377695e-03	-2.491793e-03	2.855312e-01	-1.623947e-03	-2.491793e-03	2.855312e-01	-1.064777e-03	-2.491793e-03	2.855312e-01	-6.545105e-04	-2.491793e-03	2.855312e-01	-3.576203e-04	-2.491793e-03	2.855312e-01	-1.465511e-04	-2.491793e-03	2.855312e-01	0.000000e+00	-2.526226e-03	2.894769e-01	-1.000000e-01	-2.526226e-03	2.894769e-01	-7.764540e-02	-2.526226e-03	2.894769e-01	-6.010200e-02	-2.526226e-03	2.894769e-01	-4.636143e-02	-2.526226e-03	2.894769e-01	-3.562254e-02	-2.526226e-03	2.894769e-01	-2.724950e-02	-2.526226e-03	2.894769e-01	-2.073818e-02	-2.526226e-03	2.894769e-01	-1.568936e-02	-2.526226e-03	2.894769e-01	-1.178728e-02	-2.526226e-03	2.894769e-01	-8.782491e-03	-2.526226e-03	2.894769e-01	-6.478240e-03	-2.526226e-03	2.894769e-01	-4.719558e-03	-2.526226e-03	2.894769e-01	-3.384591e-03	-2.526226e-03	2.894769e-01	-2.377695e-03	-2.526226e-03	2.894769e-01	-1.623947e-03	-2.526226e-03	2.894769e-01	-1.064777e-03	-2.526226e-03	2.894769e-01	-6.545105e-04	-2.526226e-03	2.894769e-01	-3.576203e-04	-2.526226e-03	2.894769e-01	-1.465511e-04	-2.526226e-03	2.894769e-01	0.000000e+00	-2.560659e-03	2.934225e-01	-1.000000e-01	-2.560659e-03	2.934225e-01	-7.764540e-02	-2.560659e-03	2.934225e-01	-6.010200e-02	-2.560659e-03	2.934225e-01	-4.636143e-02	-2.560659e-03	2.934225e-01	-3.562254e-02	-2.560659e-03	2.934225e-01	-2.724950e-02	-2.560659e-03	2.934225e-01	-2.073818e-02	-2.560659e-03	2.934225e-01	-1.568936e-02	-2.560659e-03	2.934225e-01	-1.178728e-02	-2.560659e-03	2.934225e-01	-8.782491e-03	-2.560659e-03	2.934225e-01	-6.478240e-03	-2.560659e-03	2.934225e-01	-4.719558e-03	-2.560659e-03	2.934225e-01	-3.384591e-03	-2.560659e-03	2.934225e-01	-2.377695e-03	-2.560659e-03	2.934225e-01	-1.623947e-03	-2.560659e-03	2.934225e-01	-1.064777e-03	-2.560659e-03	2.934225e-01	-6.545105e-04	-2.560659e-03	2.934225e-01	-3.576203e-04	-2.560659e-03	2.934225e-01	-1.465511e-04	-2.560659e-03	2.934225e-01	0.000000e+00	-2.595092e-03	2.973681e-01	-1.000000e-01	-2.595092e-03	2.973681e-01	-7.764540e-02	-
[...]
POINT_DATA 2720

SCALARS Density double 1
LOOKUP_TABLE default
1.236610e+00	1.236610e+00	1.236610e+00	1.236610e+00	1.236610e+00	1.236610e+00	1.236611e+00	1.236611e+00	1.236611e+00	1.236611e+00	1.236612e+00	1.236612e+00	1.236613e+00	1.236613e+00	1.236614e+00	1.236614e+00	1.236615e+00	1.236615e+00	1.236616e+00	1.236616e+00	1.236617e+00	1.236617e+00	1.236618e+00	1.236618e+00	1.236618e+00	1.236618e+00	1.236619e+00	1.236619e+00	1.236619e+00	1.236618e+00	1.236620e+00	1.236620e+00	1.236619e+00	1.236619e+00	1.236620e+00	1.236620e+00	1.236619e+00	1.236619e+00	1.236621e+00	1.236621e+00	1.236610e+00	1.236610e+00	1.236610e+00	1.236611e+00	1.236611e+00	1.236612e+00	1.236613e+00	1.236614e+00	1.236615e+00	1.236616e+00	1.236616e+00	1.236617e+00	1.236617e+00	1.236618e+00	1.236618e+00	1.236619e+00	1.236618e+00	1.236619e+00	1.236618e+00	1.236620e+00	1.236610e+00	1.236610e+00	1.236610e+00	1.236610e+00	1.236611e+00	1.236612e+00	1.236613e+00	1.236614e+00	1.236614e+00	1.236615e+00	1.236616e+00	1.236617e+00	1.236616e+00	1.236617e+00	1.236617e+00	1.236618e+00	1.236617e+00	1.236618e+00	1.236617e+00	1.236619e+00	1.236610e+00	1.236610e+00	1.236610e+00	1.236610e+00	1.236611e+00	1.236612e+00	1.236612e+00	1.236613e+00	1.236614e+00	1.236615e+00	1.236615e+00	1.236616e+00	1.236615e+00	1.236616e+00	1.236616e+00	1.236617e+00	1.236616e+00	1.236617e+00	1.236616e+00	1.236618e+00	1.236610e+00	1.236610e+00	1.236610e+00	1.236610e+00	1.236611e+00	1.236611e+00	1.236612e+00	1.236613e+00	1.236613e+00	1.236614e+00	1.236614e+00	1.236615e+00	1.236614e+00	1.236615e+00	1.236615e+00	1.236616e+00	1.236615e+00	1.236616e+00	1.236614e+00	1.236616e+00	1.236609e+00	1.236609e+00	1.236610e+00	1.236610e+00	1.236610e+00	1.236611e+00	1.236611e+00	1.236612e+00	1.236612e+00	1.236613e+00	1.236613e+00	1.236614e+00	1.236613e+00	1.236614e+00	1.236613e+00	1.236614e+00	1.236613e+00	1.236615e+00	1.236613e+00	1.236615e+00	1.236609e+00	1.236609e+00	1.236610e+00	1.236610e+00	1.236610e+00	1.236611e+00	1.236611e+00	1.236611e+00	1.236611e+00	1.236612e+00	1.236612e+00	1.236613e+00	1.236612e+00	1.236613e+00	1.236612e+00	1.236613e+00	1.236612e+00	1.236613e+00	1.236612e+00	1.236614e+00	1.236609e+00	1.236609e+00	1.236609e+00	1.236610e+00	1.236610e+00	1.236610e+00	1.236610e+00	1.236611e+00	1.236611e+00	1.236611e+00	1.236611e+00	1.236611e+00	1.236611e+00	1.236612e+00	1.236611e+00	1.236612e+00	1.236611e+00	1.236612e+00	1.236611e+00	1.236612e+00	1.236609e+00	1.236609e+00	1.236609e+00	1.236609e+00	1.236609e+00	1.236610e+00	1.236610e+00	1.236610e+00	1.236610e+00	1.236610e+00	1.236610e+00	1.236610e+00	1.236610e+00	1.236610e+00	1.236610e+00	1.236611e+00	1.236609e+00	1.236611e+00	1.236609e+00	1.236611e+00	1.236609e+00	1.236609e+00	1.236609e+00	1.236609e+00	1.236609e+00	1.236609e+00	1.236609e+00	1.236609e+00	1.236609e+00	1.236609e+00	1.236609e+00	1.236609e+00	1.236609e+00	1.236609e+00	1.236608e+00	1.236609e+00	1.236608e+00	1.236609e+00	1.236608e+00	1.236610e+00	1.236609e+00	1.236609e+00	1.236609e+00	1.236609e+00	1.236609e+00	1.236609e+00	1.236608e+00	1.236608e+00	1.236608e+00	1.236608e+00	1.236608e+00	1.236608e+00	1.236607e+00	1.236608e+00	1.236607e+00	1.236608e+00	1.236607e+00	1.236608e+00	1.236607e+00	1.236608e+00	1.236609e+00	1.236609e+00	1.236609e+00	1.236609e+00	1.236609e+00	1.236608e+00	1.236608e+00	1.236608e+00	1.236607e+00	1.236607e+00	1.236607e+00	1.236607e+00	1.236606e+00	1.236607e+00	1.236606e+00	1.236607e+00	1.236606e+00	1.236607e+00	1.236605e+00	1.236607e+00	1.236609e+00	1.236609e+00	1.236609e+00	1.236609e+00	1.236608e+00	1.236608e+00	1.236607e+00	1.236607e+00	1.236607e+00	1.236607e+00	1.236606e+00	1.236606e+00	1.236605e+00	1.236606e+00	1.236605e+00	1.236606e+00	1.236605e+00	1.236606e+00	1.236604e+00	1.236606e+00	1.236609e+00	1.236609e+00	1.236609e+00	1.236609e+00	1.236608e+00	1.236608e+00	1.236607e+00	1.236607e+00	1.236606e+00	1.236606e+00	1.236605e+00	1.236605e+00	1.236604e+00	1.236605e+00	1.236604e+00	1.236605e+00	1.236604e+00	1.236605e+00	1.236603e+00	1.236605e+00	1.236609e+00	1.236609e+00	1.236609e+00	1.236608e+00	1.236608e+00	1.236607e+00	1.236607e+00	1.236606e+00	1.236605e+00	1.236605e+00	1.236604e+00	1.236604e+00	1.236604e+00	1.236604e+00	1.236603e+00	1.236604e+00	1.236603e+00	1.236604e+00	1.236602e+00	1.236604e+00	1.236609e+00	1.236609e+00	1.236609e+00	1.236608e+00	1.236608e+00	1.236607e+00	1.236606e+00	1.236606e+00	1.236605e+00	1.236604e+00	1.236604e+00	1.236604e+00	1.236603e+00	1.236603e+00	1.236602e+00	1.236603e+00	1.236602e+00	1.236603e+00	1.236601e+00	1.236603e+00	1.236609e+00	1.236609e+00	1.236609e+00	1.236608e+00	1.236608e+00	1.236607e+00	1.236606e+00	1.236605e+00	1.236604e+00	1.236604e+00	1.236603e+00	1.236603e+00	1.236602e+00	1.236603e+00	1.236602e+00	1.236602e+00	1.236601e+00	1.236602e+00	1.236601e+00	1.236602e+00	1.236609e+00	1.236609e+00	1.236609e+00	1.236608e+00	1.236607e+00	1.236607e+00	1.236606e+00	1.236605e+00	1.236604e+00	1.236604e+00	1.236603e+00	1.236603e+00	1.236602e+00	1.236602e+00	1.236601e+00	1.236602e+00	1.236600e+00	1.236601e+00	1.236600e+00	1.236602e+00	1.236609e+00	1.236609e+00	1.236609e+00	1.236608e+00	1.236608e+00	1.236607e+00	1.236606e+00	1.236605e+00	1.236604e+00	1.236604e+00	1.236603e+00	1.236603e+00	1.236602e+00	1.236602e+00	1.236601e+00	1.236601e+00	1.236601e+00	1.236601e+00	1.236600e+00	1.236601e+00	1.236618e+00	1.236618e+00	1.236605e+00	1.236605e+00	1.236592e+00	1.236593e+00	1.236574e+00	1.236574e+00	1.236555e+00	1.236555e+00	1.236532e+00	1.236533e+00	1.236509e+00	1.236510e+00	1.236484e+00	1.236485e+00	1.236459e+00	1.236459e+00	1.236432e+00	1.236433e+00	1.236405e+00	1.236406e+00	1.236377e+00	1.236379e+00	1.236350e+00	1.236352e+00	1.236323e+00	1.236324e+00	1.236297e+00	1.236298e+00	1.236271e+00	1.236272e+00	1.236246e+00	1.236247e+00	1.236222e+00	1.236224e+00	1.236199e+00	1.236201e+00	1.236178e+00	1.236180e+00	1.236159e+00	1.236161e+00	1.236141e+00	1.236143e+00	1.236126e+00	1.236128e+00	1.236112e+00	1.236114e+00	1.236101e+00	1.236104e+00	1.236092e+00	1.236095e+00	1.236086e+00	1.236089e+00	1.236082e+00	1.236084e+00	1.236081e+00	1.236084e+00	1.236617e+00	1.236604e+00	1.236592e+00	1.236573e+00	1.236555e+00	1.236533e+00	1.236510e+00	1.236485e+00	1.236460e+00	1.236433e+00	1.236407e+00	1.236380e+00	1.236353e+00	1.236326e+00	1.236299e+00	1.236274e+00	1.236249e+00	1.236225e+00	1.236203e+00	1.236182e+00	1.236163e+00	1.236146e+00	1.236131e+00	1.236117e+00	1.236106e+00	1.236097e+00	1.236091e+00	1.236087e+00	1.236087e+00	1.236616e+00	1.236603e+00	1.236591e+00	1.236573e+00	1.236555e+00	1.236533e+00	1.236510e+00	1.236486e+00	1.236461e+00	1.236434e+00	1.236408e+00	1.236381e+00	1.236354e+00	1.236327e+00	1.236301e+00	1.236275e+00	1.236251e+00	1.236227e+00	1.236205e+00	1.236185e+00	1.236166e+00	1.236148e+00	1.236133e+00	1.236120e+00	1.236109e+00	1.236100e+00	1.236094e+00	1.236090e+00	1.236089e+00	1.236615e+00	1.236602e+00	1.236590e+00	1.236572e+00	1.236554e+00	1.236532e+00	1.236510e+00	1.236486e+00	1.236461e+00	1.236435e+00	1.236408e+00	1.236382e+00	1.236355e+00	1.236328e+00	1.236302e+00	1.236277e+00	1.236253e+00	1.236229e+00	1.236207e+00	1.236187e+00	1.236168e+00	1.236151e+00	1.236136e+00	1.236123e+00	1.236112e+00	1.236103e+00	1.236097e+00	1.236093e+00	1.236093e+00	1.236614e+00	1.236601e+00	1.236589e+00	1.236571e+00	1.236554e+00	1.236532e+00	1.236510e+00	1.236486e+00	1.236461e+00	1.236435e+00	1.236409e+00	1.236383e+00	1.236356e+00	1.236330e+00	1.236304e+00	1.236279e+00	1.236255e+00	1.236231e+00	1.236210e+00	1.236189e+00	1.236170e+00	1.236153e+00	1.236139e+00	1.236125e+00	1.236115e+00	1.236106e+00	1.236100e+00	1.236096e+00	1.236096e+00	1.236613e+00	1.236600e+00	1.236588e+00	1.236571e+00	1.236553e+00	1.236532e+00	1.236510e+00	1.236486e+00	1.236461e+00	1.236436e+00	1.236410e+00	1.236383e+00	1.236357e+00	1.236331e+00	1.236305e+00	1.236280e+00	1.236256e+00	1.236233e+00	1.236212e+00	1.236191e+00	1.236173e+00	1.236156e+00	1.236141e+00	1.236128e+00	1.236118e+00	1.236109e+00	1.236104e+00	1.236100e+00	1.236099e+00	1.236611e+00	1.236599e+00	1.236587e+00	1.236570e+00	1.236552e+00	1.236531e+00	1.236510e+00	1.236486e+00	1.236462e+00	1.236436e+00	1.236411e+00	1.236384e+00	1.236358e+00	1.236332e+00	1.236307e+00	1.236282e+00	1.236258e+00	1.236235e+00	1.236214e+00	1.236194e+00	1.236175e+00	1.236159e+00	1.236144e+00	1.236131e+00	1.236121e+00	1.236112e+00	1.236107e+00	1.236103e+00	1.236102e+00	1.236610e+00	1.236598e+00	1.236586e+00	1.236569e+00	1.236552e+00	1.236531e+00	1.236509e+00	1.236486e+00	1.236462e+00	1.236437e+00	1.236411e+00	1.236385e+00	1.236359e+00	1.236333e+00	1.236308e+00	1.236284e+00	1.236260e+00	1.236237e+00	1.236216e+00	1.236196e+00	1.236178e+00	1.236161e+00	1.236147e+00	1.236134e+00	1.236124e+00	1.236115e+00	1.236110e+00	1.236106e+00	1.236105e+00	1.236609e+00	1.236597e+00	1.236585e+00	1.236568e+00	1.236551e+00	1.236530e+00	1.236509e+00	1.236486e+00	1.236462e+00	1.236437e+00	1.236412e+00	1.236386e+00	1.236360e+00	1.236335e+00	1.236310e+00	1.236285e+00	1.236262e+00	1.236239e+00	1.236218e+00	1.236198e+00	1.236180e+00	1.236164e+00	1.236149e+00	1.236137e+00	1.236126e+00	1.236118e+00	1.236112e+00	1.236109e+00	1.236108e+00	1.236607e+00	1.236595e+00	1.236584e+00	1.236567e+00	1.236550e+00	1.236530e+00	1.236509e+00	1.236486e+00	1.236462e+00	1.236437e+00	1.236412e+00	1.236387e+00	1.236361e+00	1.236336e+00	1.236311e+00	1.236287e+00	1.236263e+00	1.236241e+00	1.236220e+00	1.236200e+00	1.236182e+00	1.236166e+00	1.236152e+00	1.236139e+00	1.236129e+00	1.236121e+00	1.236115e+00	1.236112e+00	1.236111e+00	1.236606e+00	1.236594e+00	1.236583e+00	1.236566e+00	1.236550e+00	1.236529e+00	1.236509e+00	1.236486e+00	1.236462e+00	1.236438e+00	1.236413e+00	1.236387e+00	1.236362e+00	1.236337e+00	1.236312e+00	1.236288e+00	1.236265e+00	1.236243e+00	1.236222e+00	1.236202e+00	1.236185e+00	1.236168e+00	1.236154e+00	1.236142e+00	1.236132e+00	1.236124e+00	1.236118e+00	1.236114e+00	1.236114e+00	1.236605e+00	1.236593e+00	1.236582e+00	1.236566e+00	1.236549e+00	1.236529e+00	1.236508e+00	1.236486e+00	1.236462e+00	1.236438e+00	1.236413e+00	1.236388e+00	1.236363e+00	1.236338e+00	1.236314e+00	1.236290e+00	1.236267e+00	1.236245e+00	1.236224e+00	1.236205e+00	1.236187e+00	1.236171e+00	1.236157e+00	1.236144e+00	1.236135e+00	1.236126e+00	1.236121e+00	1.236117e+00	1.236116e+00	1.236604e+00	1.236592e+00	1.236581e+00	1.236565e+00	1.236549e+00	1.236529e+00	1.236508e+00	1.236486e+00	1.236463e+00	1.236438e+00	1.236414e+00	1.236389e+00	1.236364e+00	1.236339e+00	1.236315e+00	1.236291e+00	1.236268e+00	1.236246e+00	1.236226e+00	1.236207e+00	1.236189e+00	1.236173e+00	1.236159e+00	1.236147e+00	1.236137e+00	1.236129e+00	1.236124e+00	1.236120e+00	1.236119e+00	1.236603e+00	1.236591e+00	1.236581e+00	1.236564e+00	1.236548e+00	1.236528e+00	1.236508e+00	1.236486e+00	1.236463e+00	1.236439e+00	1.236414e+00	1.236390e+00	1.236365e+00	1.236340e+00	1.236316e+00	1.236292e+00	1.236270e+00	1.236248e+00	1.236228e+00	1.236208e+00	1.236191e+00	1.236175e+00	1.236161e+00	1.236149e+00	1.236139e+00	1.236131e+00	1.236126e+00	1.236122e+00	1.236122e+00	1.236602e+00	1.236590e+00	1.236580e+00	1.236564e+00	1.236548e+00	1.236528e+00	1.236508e+00	1.236486e+00	1.236463e+00	1.236439e+00	1.236415e+00	1.236390e+00	1.236366e+00	1.236341e+00	1.236317e+00	1.236294e+00	1.236271e+00	1.236250e+00	1.236229e+00	1.236210e+00	1.236193e+00	1.236177e+00	1.236163e+00	1.236151e+00	1.236142e+00	1.236134e+00	1.236128e+00	1.236125e+00	1.236124e+00	1.236601e+00	1.236590e+00	1.236579e+00	1.236563e+00	1.236547e+00	1.236528e+00	1.236508e+00	1.236486e+00	1.236463e+00	1.236439e+00	1.236416e+00	1.236391e+00	1.236367e+00	1.236342e+00	1.236318e+00	1.236295e+00	1.236272e+00	1.236251e+00	1.236231e+00	1.236212e+00	1.236195e+00	1.236179e+00	1.236165e+00	1.236153e+00	1.236144e+00	1.236136e+00	1.236131e+00	1.236127e+00	1.236126e+00	1.236600e+00	1.236589e+00	1.236579e+00	1.236563e+00	1.236547e+00	1.236528e+00	1.236508e+00	1.236486e+00	1.236464e+00	1.236440e+00	1.236416e+00	1.236392e+00	1.236367e+00	1.236343e+00	1.236319e+00	1.236296e+00	1.236274e+00	1.236252e+00	1.236232e+00	1.236213e+00	1.236196e+00	1.236181e+00	1.236167e+00	1.236155e+00	1.236146e+00	1.236138e+00	1.236133e+00	1.236129e+00	1.236128e+00	1.236600e+00	1.236588e+00	1.236578e+00	1.236562e+00	1.236547e+00	1.236527e+00	1.236508e+00	1.236486e+00	1.236464e+00	1.236440e+00	1.236417e+00	1.236392e+00	1.236368e+00	1.236344e+00	1.236320e+00	1.236297e+00	1.236275e+00	1.236254e+00	1.236234e+00	1.236215e+00	1.236198e+00	1.236182e+00	1.236169e+00	1.236157e+00	1.236148e+00	1.236140e+00	1.236135e+00	1.236131e+00	1.236130e+00	1.236599e+00	1.236589e+00	1.236578e+00	1.236563e+00	1.236547e+00	1.236528e+00	1.236508e+00	1.236487e+00	1.236464e+00	1.236441e+00	1.236417e+00	1.236393e+00	1.236369e+00	1.236345e+00	1.236321e+00	1.236298e+00	1.236276e+00	1.236255e+00	1.236235e+00	1.236216e+00	1.236199e+00	1.236184e+00	1.236170e+00	1.236159e+00	1.236149e+00	1.236141e+00	1.236136e+00	1.236133e+00	1.236132e+00	1.236082e+00	1.236084e+00	1.236081e+00	1.236084e+00	1.236082e+00	1.236084e+00	1.236082e+00	1.236084e+00	1.236082e+00	1.236085e+00	1.236082e+00	1.236085e+00	1.236083e+00	1.236085e+00	1.236083e+00	1.236086e+00	1.236084e+00	1.236086e+00	1.236084e+00	1.236087e+00	1.236085e+00	1.236087e+00	1.236086e+00	1.236088e+00	1.236087e+00	1.236089e+00	1.236087e+00	1.236090e+00	1.236088e+00	1.236090e+00	1.236089e+00	1.236091e+00	1.236089e+00	1.236092e+00	1.236089e+00	1.236092e+00	1.236090e+00	1.236092e+00	1.236087e+00	1.236087e+00	1.236087e+00	1.236087e+00	1.236088e+00	1.236088e+00	1.236088e+00	1.236088e+00	1.236089e+00	1.236089e+00	1.236090e+00	1.236091e+00	1.236091e+00	1.236092e+00	1.236093e+00	1.236093e+00	1.236094e+00	1.236094e+00	1.236094e+00	1.236090e+00	1.236090e+00	1.236090e+00	1.236090e+00	1.236090e+00	1.236090e+00	1.236091e+00	1.236091e+00	1.236092e+00	1.236092e+00	1.236093e+00	1.236093e+00	1.236094e+00	1.236095e+00	1.236095e+00	1.236096e+00	1.236096e+00	1.236096e+00	1.236097e+00	1.236093e+00	1.236093e+00	1.236093e+00	1.236093e+00	1.236093e+00	1.236093e+00	1.236094e+00	1.236094e+00	1.236094e+00	1.236095e+00	1.236095e+00	1.236096e+00	1.236096e+00	1.236097e+00	1.236098e+00	1.236098e+00	1.236098e+00	1.236099e+00	1.236099e+00	1.236096e+00	1.236096e+00	1.236096e+00	1.236096e+00	1.236096e+00	1.236096e+00	1.236097e+00	1.236097e+00	1.236097e+00	1.236097e+00	1.236098e+00	1.236098e+00	1.236099e+00	1.236099e+00	1.236100e+00	1.236100e+00	1.236101e+00	1.236101e+00	1.236101e+00	1.236099e+00	1.236099e+00	1.236099e+00	1.236099e+00	1.236099e+00	1.236099e+00	1.236100e+00	1.236100e+00	1.236100e+00	1.236100e+00	1.236101e+00	1.236101e+00	1.236101e+00	1.236102e+00	1.236102e+00	1.236102e+00	1.236103e+00	1.236103e+00	1.236103e+00	1.236103e+00	1.236102e+00	1.236102e+00	1.236102e+00	1.236102e+00	1.236102e+00	1.236103e+00	1.236103e+00	1.236103e+00	1.236103e+00	1.236103e+00	1.236103e+00	1.236104e+00	1.236104e+00	1.236104e+00	1.236105e+00	1.236105e+00	1.236105e+00	1.236105e+00	1.236106e+00	1.236105e+00	1.236105e+00	1.236105e+00	1.236105e+00	1.236105e+00	1.236105e+00	1.236105e+00	1.236106e+00	1.236106e+00	1.236106e+00	1.236106e+00	1.236106e+00	1.236106e+00	1.236107e+00	1.236107e+00	1.236107e+00	1.236107e+00	1.236107e+00	1.236108e+00	1.236108e+00	1.236108e+00	1.236108e+00	1.236108e+00	1.236108e+00	1.236108e+00	1.236108e+00	1.236108e+00	1.236108e+00	1.236108e+00	1.236108e+00	1.236109e+00	1.236109e+00	1.236109e+00	1.236109e+00	1.236109e+00	1.236109e+00	1.236109e+00	1.236111e+00	1.236111e+00	1.236111e+00	1.236111e+00	1.236111e+00	1.236111e+00	1.236111e+00	1.236111e+00	1.236111e+00	1.236111e+00	1.236111e+00	1.236111e+00	1.236111e+00	1.236111e+00	1.236111e+00	1.236111e+00	1.236111e+00	1.236111e+00	1.236111e+00	1.236114e+00	1.236114e+00	1.236114e+00	1.236114e+00	1.236114e+00	1.236114e+00	1.236114e+00	1.236114e+00	1.236114e+00	1.236113e+00	1.236113e+00	1.236113e+00	1.236113e+00	1.236113e+00	1.236113e+00	1.236113e+00	1.236113e+00	1.236113e+00	1.236113e+00	1.236117e+00	1.236116e+00	1.236117e+00	1.236116e+00	1.236117e+00	1.236116e+00	1.236116e+00	1.236116e+00	1.236116e+00	1.236116e+00	1.236116e+00	1.236116e+00	1.236115e+00	1.236115e+00	1.236115e+00	1.236115e+00	1.236114e+00	1.236114e+00	1.236114e+00	1.236120e+00	1.236119e+00	1.236119e+00	1.236119e+00	1.236119e+00	1.236119e+00	1.236119e+00	1.236119e+00	1.236119e+00	1.236118e+00	1.236118e+00	1.236118e+00	1.236117e+00	1.236117e+00	1.236117e+00	1.236116e+00	1.236116e+00	1.236116e+00	1.236116e+00	1.236122e+00	1.236122e+00	1.236122e+00	1.236122e+00	1.236122e+00	1.236121e+00	1.236121e+00	1.236121e+00	1.236121e+00	1.236121e+00	1.236120e+00	1.236120e+00	1.236119e+00	1.236119e+00	1.236119e+00	1.236118e+00	1.236118e+00	1.236118e+00	1.236118e+00	1.236125e+00	1.236124e+00	1.236124e+00	1.236124e+00	1.236124e+00	1.236124e+00	1.236124e+00	1.236123e+00	1.236123e+00	1.236123e+00	1.236122e+00	1.236122e+00	1.236121e+00	1.236121e+00	1.236120e+00	1.236120e+00	1.236120e+00	1.236119e+00	1.236119e+00	1.236127e+00	1.236126e+00	1.236127e+00	1.236126e+00	1.236126e+00	1.236126e+00	1.236126e+00	1.236125e+00	1.236125e+00	1.236125e+00	1.236124e+00	1.236124e+00	1.236123e+00	1.236123e+00	1.236122e+00	1.236122e+00	1.236121e+00	1.236121e+00	1.236121e+00	1.236129e+00	1.236128e+00	1.236129e+00	1.236128e+00	1.236128e+00	1.236128e+00	1.236128e+00	1.236127e+00	1.236127e+00	1.236127e+00	1.236126e+00	1.236125e+00	1.236125e+00	1.236124e+00	1.236124e+00	1.236123e+00	1.236123e+00	1.236123e+00	1.236122e+00	1.236131e+00	1.236130e+00	1.236131e+00	1.236130e+00	1.236130e+00	1.236130e+00	1.236130e+00	1.236129e+00	1.236129e+00	1.236128e+00	1.236128e+00	1.236127e+00	1.236127e+00	1.236126e+00	1.236125e+00	1.236125e+00	1.236124e+00	1.236124e+00	1.236124e+00	1.236132e+00	1.236132e+00	1.236132e+00	1.236132e+00	1.236132e+00	1.236131e+00	1.236131e+00	1.236131e+00	1.236130e+00	1.236130e+00	1.236129e+00	1.236129e+00	1.236128e+00	1.236127e+00	1.236127e+00	1.236126e+00	1.236126e+00	1.236126e+00	1.236125e+00	1.236125e+00	1.236126e+00	1.236126e+00	1.236126e+00	1.236127e+00	1.236127e+00	1.236128e+00	1.236129e+00	1.236129e+00	1.236130e+00	1.236130e+00	1.236131e+00	1.236131e+00	1.236131e+00	1.236132e+00	1.236132e+00	1.236132e+00	1.236132e+00	1.236132e+00	1.236124e+00	1.236124e+00	1.236124e+00	1.236125e+00	1.236125e+00	1.236126e+00	1.236127e+00	1.236127e+00	1.236128e+00	1.236128e+00	1.236129e+00	1.236129e+00	1.236130e+00	1.236130e+00	1.236130e+00	1.236130e+00	1.236131e+00	1.236130e+00	1.236131e+00	1.236122e+00	1.236123e+00	1.236123e+00	1.236123e+00	1.236124e+00	1.236124e+00	1.236125e+00	1.236125e+00	1.236126e+00	1.236127e+00	1.236127e+00	1.236127e+00	1.236128e+00	1.236128e+00	1.236128e+00	1.236128e+00	1.236129e+00	1.236128e+00	1.236129e+00	1.236121e+00	1.236121e+00	1.236121e+00	1.236122e+00	1.236122e+00	1.236123e+00	1.236123e+00	1.236124e+00	1.236124e+00	1.236125e+00	1.236125e+00	1.236125e+00	1.236126e+00	1.236126e+00	1.236126e+00	1.236126e+00	1.236127e+00	1.236126e+00	1.236127e+00	1.236119e+00	1.236119e+00	1.236120e+00	1.236120e+00	1.236120e+00	1.236121e+00	1.236121e+00	1.236122e+00	1.236122e+00	1.236123e+00	1.236123e+00	1.236123e+00	1.236124e+00	1.236124e+00	1.236124e+00	1.236124e+00	1.236124e+00	1.236124e+00	1.236125e+00	1.236118e+00	1.236118e+00	1.236118e+00	1.236118e+00	1.236119e+00	1.236119e+00	1.236119e+00	1.236120e+00	1.236120e+00	1.236121e+00	1.236121e+00	1.236121e+00	1.236121e+00	1.236121e+00	1.236122e+00	1.236122e+00	1.236122e+00	1.236122e+00	1.236122e+00	1.236116e+00	1.236116e+00	1.236116e+00	1.236116e+00	1.236117e+00	1.236117e+00	1.236117e+00	1.236118e+00	1.236118e+00	1.236118e+00	1.236119e+00	1.236119e+00	1.236119e+00	1.236119e+00	1.236119e+00	1.236119e+00	1.236119e+00	1.236119e+00	1.236120e+00	1.236114e+00	1.236114e+00	1.236114e+00	1.236115e+00	1.236115e+00	1.236115e+00	1.236115e+00	1.236116e+00	1.236116e+00	1.236116e+00	1.236116e+00	1.236116e+00	1.236116e+00	1.236116e+00	1.236117e+00	1.236116e+00	1.236117e+00	1.236116e+00	1.236117e+00	1.236113e+00	1.236113e+00	1.236113e+00	1.236113e+00	1.236113e+00	1.236113e+00	1.236113e+00	1.236113e+00	1.236113e+00	1.236113e+00	1.236114e+00	1.236114e+00	1.236114e+00	1.236114e+00	1.236114e+00	1.236114e+00	1.236114e+00	1.236114e+00	1.236114e+00	1.236111e+00	1.236111e+00	1.236111